48   
Dihedral (-150, -15) Energy -1439.270005200
C        0.1082696734    0.1542929615    0.0132019797
C        1.1188734269    1.0588109465    0.3605789846
C        1.9888810275    0.8095860897    1.4245106615
C        1.8878198432   -0.3810006980    2.1478083015
C        0.9456124189   -1.3382969385    1.7672452400
C        0.0760892814   -1.0803278857    0.7016446646
S       -1.0601972359   -2.3689354745    0.2163240733
C       -1.0226591810   -2.0970985489   -1.5411307712
C       -1.1067833260   -3.1764002672   -2.4264187919
C       -1.1292081451   -2.9447395429   -3.8048600296
C       -1.0442797357   -1.6363576103   -4.2941501500
C       -0.9623319413   -0.5621897353   -3.4038909854
C       -0.9821583239   -0.7746891716   -2.0196512552
C       -0.9411928556    0.3486864139   -1.0457147366
C       -2.0677915137    1.0751436272   -0.7866353325
C       -2.2117263038    2.1020947374    0.2760978494
C       -1.4043311247    3.2299712230    0.6077157503
C       -0.3643846532    3.7239448914   -0.2255312131
C        0.3518159575    4.8498568006    0.1215726017
C        0.0710258425    5.5336802285    1.3328347939
C       -0.9725323717    5.1168941454    2.1313815580
C       -1.7641719862    3.9900063050    1.7720321075
C       -2.9418824472    3.6539247859    2.4972417715
C       -3.7938918371    2.6629040349    2.0478116261
C       -3.4319270562    1.9100775961    0.9122929935
C       -4.2317102662    0.8700961697    0.1702551486
C       -3.5214581297    0.8002324253   -1.2208106325
C       -3.9259463366   -0.4614172742   -1.9798282960
H        1.2298722112    1.9757354897   -0.1989770945
H        2.7446011001    1.5468110293    1.6819857702
H        2.5587329867   -0.5825223602    2.9786718269
H        0.8979169292   -2.2961596947    2.2783722993
H       -1.1471760923   -4.1910360043   -2.0392994477
H       -1.1934851978   -3.7846427390   -4.4916657768
H       -1.0443534241   -1.4542013852   -5.3654532205
H       -0.9074849243    0.4577539012   -3.7757916400
H       -5.2909932490    1.1329498558    0.0817401121
H       -4.1685124874   -0.1134674817    0.6548630241
H       -3.8637798422    1.6752647070   -1.7911179429
H       -3.5989363937   -1.3672785941   -1.4653170360
H       -5.0207514198   -0.4892362056   -2.0374803788
H       -3.5395337359   -0.4891894665   -2.9992462484
H       -0.1709230092    3.2215138656   -1.1680811829
H       -4.7332553774    2.4669056286    2.5596593774
H        1.1304459576    5.2231264810   -0.5389838537
H       -1.2271461500    5.6680940158    3.0339168713
H       -3.1941538805    4.2354995850    3.3810611282
H        0.6572895104    6.4062126018    1.6090576553
48   
Dihedral (-150, -10) Energy -1439.274579300
C       -0.1460617034    0.1415975269    0.0105806114
C       -0.4094136894    0.1077099244    1.3907857050
C        0.6206563315   -0.0486692744    2.3161668185
C        1.9413883706   -0.2047946520    1.8783421919
C        2.2196694111   -0.2378030494    0.5105667791
C        1.1794305465   -0.0748358273   -0.4099863407
S        1.5136084634   -0.1035431029   -2.1520801398
C        0.0315181511   -0.9467661151   -2.6794219865
C        0.1650762816   -1.8314528982   -3.7545459683
C       -0.9442814917   -2.5232866498   -4.2404372423
C       -2.1816810968   -2.3359236969   -3.6220881572
C       -2.3130567349   -1.4498806826   -2.5519466198
C       -1.2224495249   -0.7072020768   -2.0538223945
C       -1.2405272548    0.3284855277   -0.9788540639
C       -2.3300538739    1.1073856389   -0.6486599655
C       -2.3542292334    2.3278528696    0.1839687972
C       -1.2989214164    3.1410464168    0.7379732067
C        0.0673224932    3.0520534619    0.3645595374
C        1.0300641945    3.8441065684    0.9575307790
C        0.6788909536    4.7753429944    1.9631753696
C       -0.6491291922    4.9474979996    2.2922936788
C       -1.6654623029    4.1745092452    1.6664986312
C       -3.0384383532    4.4725340577    1.9016718558
C       -4.0257084789    3.8279756723    1.1880241042
C       -3.6722105157    2.7737551874    0.3220427132
C       -4.5934647473    2.0447988151   -0.6173365850
C       -3.7874661638    0.7901508433   -1.0014255380
C       -4.2563616576   -0.3801162339   -0.1007503597
H       -1.4318818747    0.2283199952    1.7337172017
H        0.3943402393   -0.0498737267    3.3789052669
H        2.7473952179   -0.3278107929    2.5968210741
H        3.2337422356   -0.4039256177    0.1568390965
H        1.1454413320   -1.9891039972   -4.1960726727
H       -0.8359130730   -3.2137834125   -5.0724063497
H       -3.0540620520   -2.8857538845   -3.9655312177
H       -3.2864023569   -1.3650970018   -2.0988225885
H       -4.7915324555    2.6841464683   -1.4875083555
H       -5.5636571803    1.7942717802   -0.1757220288
H       -3.9174153928    0.5390083281   -2.0560461605
H       -4.3232688602   -0.0359925347    0.9371723305
H       -5.2501896367   -0.7284560394   -0.4043962899
H       -3.5696250749   -1.2285861839   -0.1126736189
H        0.3590349375    2.3837847168   -0.4313181551
H       -5.0691393906    4.1141542878    1.2975762303
H        2.0655756844    3.7538228716    0.6402060652
H       -0.9430755955    5.7040441122    3.0164536556
H       -3.2899363163    5.2589103969    2.6096228469
H        1.4471040491    5.3774375166    2.4414588261
48   
Dihedral (-150, -5) Energy -1439.277819320
C       -0.0901849706    0.0499326155   -0.0219705645
C       -0.1849954047    0.0733555668    1.3755001141
C        0.9653647616    0.0959536579    2.1643570556
C        2.2302494810    0.0742396493    1.5645715846
C        2.3442147443   -0.0055376161    0.1742894664
C        1.1870001841   -0.0299554056   -0.6095088785
S        1.3034478163   -0.1238584413   -2.3913456978
C       -0.0704976420   -1.2399955219   -2.6449814742
C        0.0472627192   -2.2790008562   -3.5730190711
C       -0.9636549064   -3.2379414130   -3.6688106461
C       -2.0507777896   -3.1905634408   -2.7883519555
C       -2.1660704605   -2.1416790440   -1.8739082204
C       -1.2248976216   -1.1042945360   -1.8421430569
C       -1.2715756202    0.0718421439   -0.9293478941
C       -2.3079885455    0.9336307032   -0.7553558136
C       -2.3340747075    2.0567014177    0.2252154336
C       -1.3050213101    2.9421286520    0.6728309791
C       -0.0209598590    3.0343961582    0.0698948270
C        0.9308304699    3.9029196135    0.5594995161
C        0.6456988168    4.7312141359    1.6747069737
C       -0.6118123407    4.7129633587    2.2393864420
C       -1.6249921731    3.8478223034    1.7395975654
C       -2.9563860074    3.9094781271    2.2427342842
C       -3.9652822562    3.1561776615    1.6757655596
C       -3.6453265121    2.2449956664    0.6473726972
C       -4.5811445682    1.3989243951   -0.1816592628
C       -3.6987329566    1.0329895397   -1.4088657766
C       -4.3210590343   -0.0366833564   -2.3008144783
H       -1.1663523840    0.1072597958    1.8385791125
H        0.8765092511    0.1372885085    3.2464827493
H        3.1271021340    0.0951020832    2.1779884583
H        3.3214488979   -0.0646381679   -0.2972752496
H        0.9410337596   -2.3578110767   -4.1859176706
H       -0.8732237096   -4.0488946158   -4.3865929415
H       -2.8037501230   -3.9739715771   -2.8076717261
H       -2.9901678895   -2.1255881170   -1.1707138941
H       -5.4932545324    1.9339903773   -0.4664645489
H       -4.8854004382    0.4839330107    0.3460973982
H       -3.6393241753    1.9483546947   -2.0157329949
H       -4.5915027738   -0.9392066220   -1.7486718618
H       -5.2458575386    0.3703058904   -2.7265618560
H       -3.6703117090   -0.3222776216   -3.1291421986
H        0.2003672275    2.4288119200   -0.7994449209
H       -4.9932737412    3.2614632797    2.0149213784
H        1.9064921776    3.9561546376    0.0836027960
H       -0.8540391358    5.3793726281    3.0643601614
H       -3.1766349886    4.6031922634    3.0510785523
H        1.4106383519    5.3992684335    2.0622261108
48   
Dihedral (-150, 0) Energy -1439.279837430
C       -0.0481954097    0.0395460824   -0.0347893571
C       -0.0642350889    0.0919084715    1.3650738185
C        1.1265761996    0.1586002139    2.0887930978
C        2.3551671649    0.1534455833    1.4183172034
C        2.3917253303    0.0458623960    0.0256755369
C        1.1944928114   -0.0248037747   -0.6937788838
S        1.2246516225   -0.1567920898   -2.4765113067
C       -0.1410782242   -1.2974613771   -2.6367559962
C       -0.0534166843   -2.3639661160   -3.5381022138
C       -1.0553542209   -3.3372377245   -3.5599679546
C       -2.1089404292   -3.2704006250   -2.6412128547
C       -2.1940933213   -2.1964595729   -1.7540935155
C       -1.2575209725   -1.1539169641   -1.7874817770
C       -1.2845740404    0.0159337690   -0.8648957993
C       -2.2686084186    0.9446413992   -0.7639703003
C       -2.3200166679    2.0673491688    0.2212108784
C       -1.3062188573    2.9337792034    0.7359452785
C        0.0071796150    3.0240820199    0.2008174377
C        0.9432546028    3.8715630627    0.7527700433
C        0.6129685676    4.6811500170    1.8690118710
C       -0.6705729953    4.6656241880    2.3715501932
C       -1.6669137669    3.8220043774    1.8052333272
C       -3.0190702465    3.8882967400    2.2472373002
C       -4.0059875376    3.1534547291    1.6217177091
C       -3.6472670768    2.2579880321    0.5923182440
C       -4.5580781156    1.4239336428   -0.2758088810
C       -3.6327438402    1.0552103043   -1.4673426032
C       -4.2175805081   -0.0097607037   -2.3894209914
H       -1.0196842337    0.1167248470    1.8803737923
H        1.0970615191    0.2243788054    3.1728705224
H        3.2848831527    0.2095759575    1.9782678274
H        3.3423079868   -0.0008303581   -0.4988198768
H        0.8132019175   -2.4519486907   -4.1876710111
H       -0.9844468320   -4.1691094879   -4.2557068362
H       -2.8566770159   -4.0583299981   -2.6092370412
H       -2.9915921158   -2.1607794874   -1.0200086036
H       -5.4545480688    1.9679999489   -0.5918122811
H       -4.8889229510    0.5100543635    0.2377993136
H       -3.5425743334    1.9720040423   -2.0684288655
H       -4.5095438288   -0.9157772110   -1.8549199285
H       -5.1225446849    0.3994683802   -2.8539571310
H       -3.5306848250   -0.2917480694   -3.1895798836
H        0.2648825844    2.4327696275   -0.6680268771
H       -5.0475063661    3.2591739162    1.9166236710
H        1.9417333287    3.9207006977    0.3265445138
H       -0.9462636618    5.3177302284    3.1974597803
H       -3.2702455235    4.5692003340    3.0574339244
H        1.3648674856    5.3327889796    2.3067498179
48   
Dihedral (-150, 5) Energy -1439.279038580
C       -0.0230792195    0.0302164992   -0.0437021929
C        0.0440418412    0.0958671287    1.3540246189
C        1.2737987388    0.1953559933    2.0054943971
C        2.4589395380    0.2110398210    1.2618145413
C        2.4136360972    0.0909220023   -0.1297206875
C        1.1780065928   -0.0151072304   -0.7774415566
S        1.1143527045   -0.1704950731   -2.5572371372
C       -0.2373959221   -1.3350087437   -2.6289337552
C       -0.1858375683   -2.4189304622   -3.5133730326
C       -1.1777673705   -3.4022937083   -3.4672565625
C       -2.1915425472   -3.3245740886   -2.5058883585
C       -2.2405188816   -2.2348697073   -1.6362928778
C       -1.3096763735   -1.1897373935   -1.7285813476
C       -1.3094546413   -0.0299877822   -0.7917175667
C       -2.2394656999    0.9586946590   -0.7668199911
C       -2.3192751002    2.0878620565    0.2152355997
C       -1.3252557593    2.9369358387    0.7955393070
C        0.0171718084    3.0192876133    0.3375872985
C        0.9296453667    3.8542416903    0.9453442514
C        0.5477318030    4.6578616636    2.0487280512
C       -0.7610780128    4.6482639391    2.4811832689
C       -1.7330004701    3.8195662295    1.8538453820
C       -3.1049092367    3.8978327615    2.2257673704
C       -4.0638540810    3.1777382986    1.5436944384
C       -3.6615678380    2.2879706433    0.5257080601
C       -4.5436864061    1.4641400523   -0.3797321964
C       -3.5722810655    1.0795466068   -1.5256243425
C       -4.1236287349    0.0152714079   -2.4687109563
H       -0.8800381238    0.1076208326    1.9243750149
H        1.3074906243    0.2731071101    3.0885823292
H        3.4195893774    0.2931841043    1.7633043446
H        3.3320152890    0.0595482301   -0.7098252564
H        0.6478284326   -2.5118011536   -4.2040746917
H       -1.1306766739   -4.2467203144   -4.1498099343
H       -2.9333646018   -4.1148638027   -2.4277307087
H       -3.0068751292   -2.1850935960   -0.8692892302
H       -5.4188167025    2.0188237346   -0.7348118320
H       -4.9075089913    0.5563444124    0.1223479881
H       -3.4437538797    1.9917356656   -2.1269913911
H       -4.4323079226   -0.8922597808   -1.9471221186
H       -5.0110800950    0.4254348083   -2.9653242136
H       -3.4077793327   -0.2652904431   -3.2438994674
H        0.3190586064    2.4328080524   -0.5199049505
H       -5.1183245620    3.2886819220    1.7859949850
H        1.9500077894    3.8952252608    0.5737611884
H       -1.0758591909    5.2947968673    3.2974204892
H       -3.3907227536    4.5746399535    3.0278626469
H        1.2802614968    5.2994162966    2.5318719017
48   
Dihedral (-150, 10) Energy -1439.275753330
C        0.0210594701    0.0274775834   -0.0211205992
C        0.1711819403    0.1031017350    1.3694806353
C        1.4344012102    0.2384196665    1.9464578610
C        2.5714314148    0.2794247911    1.1326063055
C        2.4449159195    0.1471175939   -0.2529728995
C        1.1764253875    0.0029382114   -0.8268154626
S        1.0227734067   -0.1784660984   -2.5988457087
C       -0.3122573310   -1.3633200188   -2.5958718805
C       -0.3096793672   -2.4451957409   -3.4855945951
C       -1.2991910175   -3.4289385620   -3.3902725422
C       -2.2637289230   -3.3539627889   -2.3800112798
C       -2.2648450933   -2.2675912848   -1.5057611660
C       -1.3350649919   -1.2259673176   -1.6416004461
C       -1.3041244933   -0.0799466474   -0.6897196055
C       -2.1886285986    0.9546190475   -0.7476251497
C       -2.2994155077    2.0984181213    0.2222897783
C       -1.3333501856    2.9382621020    0.8642387704
C        0.0338808976    3.0177079422    0.4881643887
C        0.9139572049    3.8501851354    1.1456910879
C        0.4750805442    4.6537359505    2.2267879424
C       -0.8558785352    4.6450625475    2.5848930642
C       -1.7938182174    3.8213613297    1.9019953936
C       -3.1825013481    3.9087177899    2.1997817399
C       -4.1063936552    3.1966127929    1.4650470126
C       -3.6550372412    2.3079593842    0.4671822581
C       -4.5039070225    1.4885331218   -0.4714575626
C       -3.4868578647    1.0801681353   -1.5644643631
C       -4.0107219230    0.0151886344   -2.5227255670
H       -0.7176084276    0.0958902646    1.9936224977
H        1.5304377865    0.3256811298    3.0250175800
H        3.5583978783    0.3896109584    1.5740745747
H        3.3277334099    0.1332355201   -0.8865114317
H        0.4838153355   -2.5352446811   -4.2225111288
H       -1.2880306701   -4.2699048849   -4.0786603224
H       -3.0044496972   -4.1414762061   -2.2703029918
H       -2.9970500227   -2.2114451587   -0.7054903691
H       -5.3545227623    2.0511957522   -0.8709454412
H       -4.9021125396    0.5903163797    0.0217386064
H       -3.3162126700    1.9838701364   -2.1684583233
H       -4.3448811096   -0.8877782713   -2.0096441832
H       -4.8756802069    0.4316960467   -3.0529376508
H       -3.2696464203   -0.2744705949   -3.2705137700
H        0.3847168219    2.4333171932   -0.3517900843
H       -5.1720013885    3.3108789154    1.6505042536
H        1.9532334562    3.8867626709    0.8304894418
H       -1.2150652608    5.2902056201    3.3836736011
H       -3.5064434270    4.5854340249    2.9872770925
H        1.1809554182    5.2931591775    2.7507306186
48   
Dihedral (-150, 15) Energy -1439.270313180
C        0.0713447290    0.0237434553   -0.0063148170
C        0.3054593865    0.0981811522    1.3724072315
C        1.5970795483    0.2700575044    1.8720804032
C        2.6800137367    0.3469590228    0.9903928836
C        2.4724328670    0.2128128623   -0.3853611815
C        1.1759136077    0.0317578207   -0.8817602231
S        0.9297824521   -0.1589058146   -2.6424854237
C       -0.3761629952   -1.3728817768   -2.5750072675
C       -0.4191658543   -2.4388946516   -3.4832440228
C       -1.3979957173   -3.4303462943   -3.3518971166
C       -2.3070641286   -3.3796223765   -2.2905730320
C       -2.2626284269   -2.3085864743   -1.3986925524
C       -1.3442169284   -1.2615654512   -1.5642592115
C       -1.2867783936   -0.1310580567   -0.5951619422
C       -2.1300841878    0.9385650816   -0.7351342431
C       -2.2720491230    2.1034657036    0.2126358720
C       -1.3356160506    2.9336929243    0.9124844955
C        0.0509168014    3.0065662213    0.6159406376
C        0.8987151929    3.8332333921    1.3222844982
C        0.4069259675    4.6372384911    2.3790160712
C       -0.9419404773    4.6351668112    2.6622023877
C       -1.8455498825    3.8193750909    1.9261335045
C       -3.2470071280    3.9203087590    2.1486436072
C       -4.1344685160    3.2178684941    1.3631841799
C       -3.6367722920    2.3266438601    0.3899926076
C       -4.4516366099    1.5076796168   -0.5759791298
C       -3.3922287933    1.0616363730   -1.6087703052
C       -3.8962861468   -0.0135053934   -2.5671431335
H       -0.5430237068    0.0629093970    2.0495626734
H        1.7561806500    0.3580670839    2.9430717158
H        3.6887603129    0.4853863587    1.3704568014
H        3.3150725294    0.2251986352   -1.0714955589
H        0.3295282376   -2.5095072038   -4.2677229717
H       -1.4211588308   -4.2569878905   -4.0571619647
H       -3.0407055282   -4.1702987351   -2.1583663913
H       -2.9582101768   -2.2621116579   -0.5652175226
H       -5.2715448927    2.0781438803   -1.0256457610
H       -4.8898956564    0.6257042165   -0.0874827884
H       -3.1773973077    1.9487175889   -2.2235745908
H       -4.2606437977   -0.9023975137   -2.0502526127
H       -4.7366577762    0.4074654012   -3.1324988103
H       -3.1361081523   -0.3264763243   -3.2855201532
H        0.4458588149    2.4264645552   -0.2070244178
H       -5.2078956662    3.3383174642    1.4907289366
H        1.9535427899    3.8635322179    1.0631712774
H       -1.3419382755    5.2807385314    3.4409535544
H       -3.6066746422    4.5984057929    2.9192426921
H        1.0863689755    5.2717983124    2.9423340039
48   
Dihedral (-145, -15) Energy -1439.270075020
C        0.0974446384    0.0866873385    0.0703912119
C        1.0529847299    1.0106651973    0.5134289374
C        1.9074183372    0.7300751931    1.5820369820
C        1.8485100151   -0.5113215748    2.2184923389
C        0.9596370367   -1.4790033925    1.7478682016
C        0.1031589523   -1.1906397911    0.6790471729
S       -0.9777271977   -2.4941179129    0.1167974359
C       -0.9748963660   -2.1158093659   -1.6183497326
C       -1.0560502035   -3.1427889510   -2.5645670360
C       -1.1179057693   -2.8305984408   -3.9255886613
C       -1.0765078476   -1.4942923625   -4.3394512535
C       -0.9963438580   -0.4745997769   -3.3878563351
C       -0.9756752179   -0.7675084855   -2.0172105624
C       -0.9352555461    0.3134831002   -0.9982472668
C       -2.0680367634    1.0342333200   -0.7358725327
C       -2.2109659153    2.0899542194    0.2950105689
C       -1.4064901354    3.2347075767    0.5746168112
C       -0.3635830206    3.6907369326   -0.2774745603
C        0.3480370659    4.8344755162    0.0171696189
C        0.0596647586    5.5763786098    1.1920969801
C       -0.9857456463    5.1953981489    2.0058120608
C       -1.7728530496    4.0497865033    1.6989475071
C       -2.9524295755    3.7463649756    2.4352492043
C       -3.8017262630    2.7338051841    2.0299291280
C       -3.4349109049    1.9289335741    0.9327941563
C       -4.2338564029    0.8633407593    0.2280873895
C       -3.5219368295    0.7398086381   -1.1597661597
C       -3.9180410167   -0.5610495072   -1.8550800664
H        1.1335569309    1.9702735071    0.0260941756
H        2.6189080655    1.4833466729    1.9097131981
H        2.5081520498   -0.7400637497    3.0513284016
H        0.9411343295   -2.4696153278    2.1944062131
H       -1.0652699733   -4.1791935121   -2.2376787514
H       -1.1803272231   -3.6302286162   -4.6590034109
H       -1.1081666837   -1.2489880453   -5.3975964304
H       -0.9734827543    0.5667103517   -3.6988082982
H       -5.2928390851    1.1230280877    0.1281509594
H       -4.1729765226   -0.1018363846    0.7486942687
H       -3.8710514059    1.5858871960   -1.7682752647
H       -3.5698504304   -1.4350148654   -1.3000139028
H       -5.0129781910   -0.6079005958   -1.8950331638
H       -3.5460671257   -0.6328138474   -2.8774601533
H       -0.1596662618    3.1399967252   -1.1906607881
H       -4.7436208489    2.5625519392    2.5459215577
H        1.1295847257    5.1761132974   -0.6568500490
H       -1.2454484955    5.7889606728    2.8795707329
H       -3.2092344531    4.3693389842    3.2890468869
H        0.6422474623    6.4631307411    1.4277631893
48   
Dihedral (-145, -10) Energy -1439.274565240
C       -0.1749634496    0.1303151193    0.0775041691
C       -0.4708806815    0.1056611406    1.4518170639
C        0.5342922721   -0.0538941660    2.4032300850
C        1.8641773551   -0.2244178293    1.9989734011
C        2.1748546511   -0.2654764072    0.6388516328
C        1.1593240698   -0.0962445125   -0.3080615606
S        1.5436103037   -0.1210493715   -2.0383502855
C        0.0643323988   -0.9236224052   -2.6298807124
C        0.2163212109   -1.7568617505   -3.7431241712
C       -0.8887285659   -2.4003762814   -4.2984579032
C       -2.1414406639   -2.2243618624   -3.7070044235
C       -2.2914314759   -1.3909955286   -2.5977948316
C       -1.2050028898   -0.6910747002   -2.0317172131
C       -1.2434700359    0.3218709377   -0.9386684776
C       -2.3410624217    1.0960801944   -0.6176337226
C       -2.3550788151    2.3177113558    0.2064993748
C       -1.2853204512    3.1467910367    0.7042572210
C        0.0643848370    3.0593917329    0.2740563477
C        1.0433457160    3.8712786443    0.8112338431
C        0.7251858040    4.8194831691    1.8124096777
C       -0.5891799257    4.9870479256    2.1950619464
C       -1.6235284773    4.1930410210    1.6281015336
C       -2.9894447967    4.4794551827    1.9155603254
C       -3.9992990919    3.8136177316    1.2537900599
C       -3.6711317475    2.7509917062    0.3878342670
C       -4.6160895939    2.0057003635   -0.5148975311
C       -3.8006513485    0.7732806906   -0.9566522281
C       -4.2401121726   -0.4377174500   -0.0973264182
H       -1.5003715836    0.2331224289    1.7698410101
H        0.2814771811   -0.0491110086    3.4599990508
H        2.6511655765   -0.3513003965    2.7375820613
H        3.1960517252   -0.4400402001    0.3105711893
H        1.2068554569   -1.9085450659   -4.1636799668
H       -0.7666704489   -3.0482350918   -5.1621904367
H       -3.0117048407   -2.7400393534   -4.1045522665
H       -3.2775568870   -1.3084398005   -2.1724728690
H       -4.8756447763    2.6496221218   -1.3651731133
H       -5.5565633332    1.7236917044   -0.0298456535
H       -3.9474490013    0.5626425757   -2.0182651133
H       -4.2803748672   -0.1403141415    0.9563841850
H       -5.2404099027   -0.7774561097   -0.3891508375
H       -3.5505024620   -1.2811342874   -0.1662112380
H        0.3278066100    2.3751661332   -0.5189161754
H       -5.0399286235    4.0923240039    1.4025619064
H        2.0658021404    3.7844996103    0.4530958075
H       -0.8586249771    5.7549532281    2.9168090223
H       -3.2202995557    5.2747827244    2.6205512894
H        1.5072874516    5.4374796954    2.2458121862
48   
Dihedral (-145, -5) Energy -1439.277507150
C       -0.1481496625    0.0799632570    0.0302193099
C       -0.3727296398    0.0613943832    1.4176957503
C        0.6860275488   -0.0536456059    2.3162661992
C        1.9970868189   -0.1812571001    1.8419773497
C        2.2383166604   -0.2222239882    0.4674127103
C        1.1699697505   -0.1012285512   -0.4275109682
S        1.4676302391   -0.1117847709   -2.1753826765
C       -0.0100185309   -0.9694946933   -2.6858763764
C        0.1113965836   -1.8189901972   -3.7915002169
C       -0.9950201876   -2.5207457080   -4.2697194952
C       -2.2185053989   -2.3817256131   -3.6121032803
C       -2.3386547371   -1.5323318917   -2.5117983230
C       -1.2519885223   -0.7774387887   -2.0245260132
C       -1.2849241800    0.2197040620   -0.9137109915
C       -2.3409448069    1.0563800576   -0.6360765113
C       -2.3604513446    2.2925453214    0.1748943916
C       -1.3061955189    3.0984529608    0.7410322837
C        0.0648680154    2.9918236701    0.3918824539
C        1.0263340790    3.7777235487    0.9947435868
C        0.6686936878    4.7218479110    1.9860126370
C       -0.6631199217    4.9140265818    2.2876081913
C       -1.6773873062    4.1484623940    1.6492705788
C       -3.0502482958    4.4726900051    1.8465843436
C       -4.0293110170    3.8379706762    1.1132809176
C       -3.6728347748    2.7656420584    0.2707862705
C       -4.5845921253    2.0400665928   -0.6806276390
C       -3.7974423354    0.7602263271   -1.0168765612
C       -4.3176899027   -0.3770429870   -0.1033415013
H       -1.3893903597    0.1632780195    1.7843627837
H        0.4904633201   -0.0431269936    3.3849803150
H        2.8265245186   -0.2720140357    2.5382303741
H        3.2474162489   -0.3596694543    0.0880500160
H        1.0824496566   -1.9414068328   -4.2638138989
H       -0.8938659409   -3.1825213783   -5.1256223025
H       -3.0871763050   -2.9418713756   -3.9479685273
H       -3.2983319383   -1.4831427645   -2.0234968572
H       -4.7455328067    2.6666119974   -1.5675490643
H       -5.5713433746    1.8199196768   -0.2598794880
H       -3.9042498551    0.4847720159   -2.0684942502
H       -4.3958136051   -0.0107693125    0.9262689493
H       -5.3143976620   -0.7043459730   -0.4208845838
H       -3.6543005546   -1.2437003326   -0.0832144136
H        0.3614792015    2.3158445385   -0.3952815687
H       -5.0698529482    4.1444746850    1.1906880706
H        2.0659173757    3.6726762559    0.6958618016
H       -0.9612394965    5.6824011037    2.9974733154
H       -3.3059370816    5.2718508541    2.5385474147
H        1.4352981983    5.3189975403    2.4730336974
48   
Dihedral (-145, 0) Energy -1439.279743080
C       -0.0928306105    0.0147239451    0.0139238038
C       -0.1520615556    0.0545778502    1.4129662244
C        1.0160324401    0.1198629084    2.1729574531
C        2.2650865588    0.1240107446    1.5410424116
C        2.3455936950    0.0330043266    0.1492723323
C        1.1705009454   -0.0317817290   -0.6057854004
S        1.2528855689   -0.1121326026   -2.3886371078
C       -0.1041634632   -1.2488366183   -2.6275718187
C        0.0149090822   -2.2680177297   -3.5782990514
C       -0.9794298288   -3.2437625964   -3.6751038513
C       -2.0540314487   -3.2313905533   -2.7784798401
C       -2.1697870191   -2.2027676583   -1.8418073338
C       -1.2440014324   -1.1514270467   -1.8008853842
C       -1.3057640252   -0.0045937189   -0.8505336044
C       -2.2966936695    0.9172922562   -0.7444540901
C       -2.3235677400    2.0507620239    0.2267269664
C       -1.2927026141    2.9251452451    0.6893345836
C        0.0009455741    3.0011590934    0.1057187773
C        0.9561161505    3.8571393446    0.6099042880
C        0.6638876156    4.6899179286    1.7200269932
C       -0.6025837360    4.6895985359    2.2645847720
C       -1.6186595379    3.8369763867    1.7492631031
C       -2.9574235648    3.9168877310    2.2291982606
C       -3.9655259701    3.1741821029    1.6471702983
C       -3.6391361370    2.2554428649    0.6273832337
C       -4.5715101432    1.4110121346   -0.2072368984
C       -3.6760166654    1.0237556766   -1.4182808017
C       -4.2894551409   -0.0577661012   -2.3011679721
H       -1.1230495732    0.0698135079    1.8989284532
H        0.9531647634    0.1749735958    3.2562456119
H        3.1765923827    0.1772683792    2.1304073911
H        3.3119267999   -0.0002440832   -0.3467372482
H        0.8983221878   -2.3176549150   -4.2090931671
H       -0.8863624057   -4.0385627713   -4.4104037411
H       -2.7958872208   -4.0251558407   -2.8031871531
H       -2.9862706027   -2.2103073467   -1.1288062527
H       -5.4747683556    1.9516498135   -0.5093848125
H       -4.8907097588    0.5040328646    0.3255404135
H       -3.6022841103    1.9306548443   -2.0361686818
H       -4.5608214882   -0.9534546444   -1.7382261294
H       -5.2115682240    0.3406413843   -2.7406319682
H       -3.6307147207   -0.3532592760   -3.1195985780
H        0.2255264633    2.3942860862   -0.7617038688
H       -4.9977032212    3.2921986734    1.9690504874
H        1.9397676785    3.8972479444    0.1494551086
H       -0.8492842520    5.3605755716    3.0845359504
H       -3.1828894787    4.6154504312    3.0319283426
H        1.4312697467    5.3482926662    2.1191198869
48   
Dihedral (-145, 5) Energy -1439.279475600
C       -0.0705048795    0.0075712420    0.0088962927
C       -0.0485062163    0.0714765374    1.4080471705
C        1.1592917081    0.1771756598    2.0984692163
C        2.3682895860    0.1978220807    1.3940912079
C        2.3691747332    0.0831281382    0.0016527376
C        1.1547217149   -0.0233584492   -0.6844470990
S        1.1462400822   -0.1348941309   -2.4674634573
C       -0.2018773547   -1.2951305962   -2.6181871788
C       -0.1206914391   -2.3344955446   -3.5521511330
C       -1.1086726529   -3.3216741719   -3.5797227909
C       -2.1435195786   -3.2968681261   -2.6380039434
C       -2.2211984358   -2.2501494741   -1.7185070600
C       -1.2990920824   -1.1941982480   -1.7399803345
C       -1.3334768512   -0.0555698246   -0.7777408194
C       -2.2698598702    0.9279838945   -0.7486976817
C       -2.3235570849    2.0668031067    0.2210654011