12   
Dihedral (-150, -120) Energy -193.677879617
C        1.6366285802   -0.3026693434    0.6763799294
C        0.7357865985    0.2774554704   -0.4107234784
H        1.5016133908    0.2163315281    1.6311855683
H        2.6916173859   -0.2203892508    0.4016380316
H        1.4108416698   -1.3608901308    0.8364313482
H        1.0086664516    1.3139010516   -0.6372300619
C       -0.7453018031    0.1847141940   -0.0570501424
H        0.8714856661   -0.2922303869   -1.3357023753
H       -1.0618850783    1.0433892727    0.5484700758
H       -0.9179380317   -0.7156625668    0.5469382057
O       -1.5352979215    0.0600830799   -1.2476743516
H       -2.1454011502    0.8115933440   -1.2888523865
12   
Dihedral (-150, -90) Energy -193.679176643
C        1.6344743661   -0.2890487426    0.6621292636
C        0.7015283748    0.2727704918   -0.4078839736
H        1.5097245062    0.2312940353    1.6175143525
H        2.6822517360   -0.1909036640    0.3659141956
H        1.4286466751   -1.3501332902    0.8298160458
H        0.9598270672    1.3122943719   -0.6419161538
C       -0.7711661084    0.1611481644   -0.0166863148
H        0.8232796595   -0.3001585498   -1.3327568303
H       -1.0827027653    1.0008290224    0.6191825475
H       -0.9172482222   -0.7546099373    0.5658655179
O       -1.6283849808    0.0165442057   -1.1543017004
H       -1.8894201312    0.9056095412   -1.4430672804
12   
Dihedral (-150, -60) Energy -193.679996776
C        1.6266866610   -0.2878043163    0.6380768594
C        0.6604667299    0.2867768224   -0.3952877657
H        1.5183685519    0.2105245381    1.6068971706
H        2.6656376327   -0.1704925318    0.3187639175
H        1.4362224192   -1.3543859313    0.7864126305
H        0.9072321476    1.3324314975   -0.6155794077
C       -0.8003384899    0.1640782392    0.0366368185
H        0.7635759986   -0.2718305895   -1.3319748618
H       -1.0870039448    1.0008975976    0.6904848631
H       -0.9389548303   -0.7575425439    0.6091390232
O       -1.7009154318    0.0332289233   -1.0656408630
H       -1.6001541654    0.8297539455   -1.6141114060
12   
Dihedral (-150, -30) Energy -193.678209362
C        1.6148325157   -0.2962360751    0.6122889328
C        0.6299079494    0.3219241718   -0.3772158101
H        1.5264326013    0.1646073517    1.6012242694
H        2.6474077800   -0.1682987236    0.2769359526
H        1.4230812586   -1.3669730816    0.7220605929
H        0.8763560050    1.3731365593   -0.5658809459
C       -0.8221049469    0.1923547757    0.0811511519
H        0.7204455038   -0.2077989416   -1.3335286869
H       -1.0857096130    1.0247336629    0.7495085967
H       -0.9530218553   -0.7349674259    0.6479726309
O       -1.7515088228    0.1076031466   -1.0033426794
H       -1.3752901958    0.6055417307   -1.7473541232
12   
Dihedral (-150, 0) Energy -193.676462258
C        1.6024237209   -0.3101245466    0.5921622107
C        0.6225793991    0.3707830355   -0.3602545777
H        1.5278541452    0.1064454232    1.6015190323
H        2.6348447467   -0.1837000665    0.2557961019
H        1.3928240418   -1.3812577984    0.6546135780
H        0.8830505814    1.4244608705   -0.5055590272
C       -0.8290258685    0.2372250001    0.1011676987
H        0.7134923005   -0.1162759877   -1.3408259157
H       -1.0909628429    1.0547099163    0.7836202914
H       -0.9460853038   -0.7020496230    0.6574420586
O       -1.7761627348    0.2182844419   -0.9722413870
H       -1.2840082454    0.2971054655   -1.8036484610
12   
Dihedral (-150, 30) Energy -193.677554794
C        1.5955924697   -0.3245835225    0.5788467047
C        0.6354841640    0.4194045436   -0.3458239601
H        1.5230688235    0.0457627602    1.6062363918
H        2.6325822091   -0.2032349122    0.2547594638
H        1.3659319757   -1.3936130316    0.5918160124
H        0.9120900159    1.4745233777   -0.4376402921
C       -0.8236143259    0.2840314523    0.0961030215
H        0.7320363670   -0.0114635936   -1.3522599509
H       -1.1031128219    1.0842042117    0.7871523013
H       -0.9443672883   -0.6689503524    0.6343522768
O       -1.7595225151    0.3346225341   -0.9827853633
H       -1.3153502458   -0.0251028923   -1.7669613909
12   
Dihedral (-150, 60) Energy -193.678955354
C        1.5991554985   -0.3344181916    0.5761317582
C        0.6645320295    0.4578039113   -0.3347456758
H        1.5117461673   -0.0074694994    1.6171902017
H        2.6436729678   -0.2121897607    0.2773264335
H        1.3597422464   -1.4012785395    0.5410642483
H        0.9480264227    1.5143150860   -0.3695728642
C       -0.8068233191    0.3179905561    0.0668537795
H        0.7714596492    0.0805239806   -1.3599516043
H       -1.1039574890    1.1046373666    0.7644168774
H       -0.9556316299   -0.6452200148    0.5800008804
O       -1.7050440937    0.4271186269   -1.0381923476
H       -1.4760610030   -0.2862008173   -1.6567299217
12   
Dihedral (-150, 90) Energy -193.677845298
C        1.6098747629   -0.3351901114    0.5863096162
C        0.7012745725    0.4802175182   -0.3309456395
H        1.4887367734   -0.0409401497    1.6339570986
H        2.6630084361   -0.2008407589    0.3251299762
H        1.3774245377   -1.4018038661    0.5112298345
H        0.9820109779    1.5380228646   -0.3233020281
C       -0.7813529203    0.3290801504    0.0204842271
H        0.8292595210    0.1346719528   -1.3630050911
H       -1.0931221084    1.0981975398    0.7330064447
H       -0.9522030320   -0.6442779135    0.5027478551
O       -1.6301353239    0.4708451424   -1.1238684071
H       -1.7439626171   -0.4123743668   -1.5079485204
12   
Dihedral (-150, 120) Energy -193.676563057
C        1.6213834880   -0.3255962760    0.6047027467
C        0.7309181301    0.4844136816   -0.3349771141
H        1.4631277327   -0.0428753546    1.6506779490
H        2.6799869552   -0.1728876877    0.3780109549
H        1.4078940294   -1.3947167281    0.5118269412
H        1.0014313466    1.5448641620   -0.3121097518
C       -0.7561161305    0.3135410214   -0.0255595943
H        0.8828649987    0.1437586206   -1.3640588413
H       -1.0914076924    1.0543791188    0.7101276098
H       -0.9212302664   -0.6777311095    0.4182347852
O       -1.5417057588    0.4576341888   -1.2174992557
H       -2.0263325675   -0.3691531775   -1.3555816334
12   
Dihedral (-135, -120) Energy -193.675420862
C        1.6346362855   -0.3450576534    0.6506354094
C        0.7419351025    0.3578703098   -0.3688325100
H        1.4999960866    0.0684782043    1.6555109520
H        2.6916202398   -0.2432201458    0.3896744056
H        1.3977167164   -1.4119813729    0.6936329458
H        1.0280455777    1.4103200061   -0.4719703523
C       -0.7497021215    0.2296062733   -0.0418512894
H        0.8835172737   -0.1036551512   -1.3509124568
H       -1.1341854038    1.1429755323    0.4283637774
H       -0.8973925331   -0.5865093572    0.6771363572
O       -1.4989464847   -0.1032027652   -1.2198235450
H       -2.1463527445    0.6000074282   -1.3777140468
12   
Dihedral (-135, -90) Energy -193.676763388
C        1.6321222345   -0.3334372703    0.6355286261
C        0.7077087826    0.3517514003   -0.3681635514
H        1.5128121369    0.0853622816    1.6401099347
H        2.6819443297   -0.2199628565    0.3515848403
H        1.4093938626   -1.4028476256    0.6900496235
H        0.9842257889    1.4059682401   -0.4852826813
C       -0.7751891495    0.2115733924    0.0014003597
H        0.8300176122   -0.1195398494   -1.3484887452
H       -1.1533893607    1.1120209315    0.5030001504
H       -0.8950710941   -0.6196768781    0.7039227633
O       -1.5922206139   -0.1397157431   -1.1215745347
H       -1.8914748056    0.6841395869   -1.5382510574
12   
Dihedral (-135, -60) Energy -193.677560922
C        1.6217307636   -0.3332213699    0.6085142793
C        0.6669033077    0.3642724872   -0.3580107858
H        1.5261124263    0.0695170871    1.6219471042
H        2.6631448141   -0.2099937638    0.2989300721
H        1.4042374242   -1.4040542017    0.6510839772
H        0.9376656092    1.4207712578   -0.4664884053
C       -0.8044372634    0.2194226886    0.0550294033
H        0.7688287006   -0.0964897566   -1.3467233191
H       -1.1583324308    1.1221314795    0.5736106226
H       -0.9160277627   -0.6169461848    0.7507846740
O       -1.6662520269   -0.1175408240   -1.0352931656
H       -1.5927053463    0.5977673477   -1.6895499613
12   
Dihedral (-135, -30) Energy -193.675609708
C        1.6054369782   -0.3418437144    0.5789329800
C        0.6376294560    0.3971435274   -0.3428949273
H        1.5319764096    0.0269788570    1.6067501011
H        2.6415365303   -0.2153218060    0.2533563280
H        1.3790927331   -1.4114386670    0.5888451003
H        0.9131911981    1.4542028562   -0.4213457525
C       -0.8263644863    0.2508126501    0.0958342953
H        0.7313031275   -0.0323651831   -1.3481167687
H       -1.1567892199    1.1538629248    0.6284061412
H       -0.9297511253   -0.5897668568    0.7892836405
O       -1.7218826929   -0.0411428455   -0.9817972815
H       -1.3545216041    0.3645060780   -1.7834382613
12   
Dihedral (-135, 0) Energy -193.673759653
C        1.5888608250   -0.3551476243    0.5543465231
C        0.6309488997    0.4417003884   -0.3281731871
H        1.5254292879   -0.0307963004    1.5975215534
H        2.6256735132   -0.2314278762    0.2299368049
H        1.3445491483   -1.4202943312    0.5191606622
H        0.9224204844    1.4963600564   -0.3591855888
C       -0.8344112694    0.2960784107    0.1103560484
H        0.7293616328    0.0659106798   -1.3556850150
H       -1.1627022207    1.1888215982    0.6555316660
H       -0.9255658932   -0.5545842714    0.7982467458
O       -1.7505954449    0.0683271193   -0.9665406394
H       -1.2431221470    0.0506838806   -1.7916726758
12   
Dihedral (-135, 30) Energy -193.675012367
C        1.5798665689   -0.3677644437    0.5358194729
C        0.6423783657    0.4859380624   -0.3142456773
H        1.5156096645   -0.0906093650    1.5924486458
H        2.6208867913   -0.2480585028    0.2235247247
H        1.3192678356   -1.4267679471    0.4525907274
H        0.9488146871    1.5364878015   -0.2866775362
C       -0.8310587109    0.3407640057    0.1010279273
H        0.7433520067    0.1754193597   -1.3627779335
H       -1.1771505835    1.2192170842    0.6522030026
H       -0.9299485180   -0.5243142969    0.7746928262
O       -1.7330525993    0.1818686695   -0.9970555341
H       -1.2481327075   -0.2665644332   -1.7077004611
12   
Dihedral (-135, 60) Energy -193.676629785
C        1.5841992624   -0.3741913549    0.5287600453
C        0.6690350269    0.5225598414   -0.3016389590
H        1.5031568777   -0.1431937936    1.5954749114
H        2.6319381443   -0.2507132305    0.2412870591
H        1.3195689561   -1.4276932569    0.3962036009
H        0.9783475563    1.5690281560   -0.2142951516
C       -0.8160739191    0.3701712391    0.0690374558
H        0.7781570054    0.2664724038   -1.3622622355
H       -1.1790629600    1.2371568559    0.6253629452
H       -0.9466914675   -0.5093574531    0.7185970421
O       -1.6772124335    0.2700293461   -1.0671171190
H       -1.3945142045   -0.5146387977   -1.5655731465
12   
Dihedral (-135, 90) Energy -193.675612921
C        1.5985714275   -0.3714280732    0.5360637895
C        0.7030118772    0.5447015717   -0.2953657056
H        1.4824463823   -0.1765167002    1.6069887832
H        2.6540562115   -0.2316645417    0.2867560949
H        1.3478181602   -1.4221983455    0.3602898350
H        1.0023190101    1.5894747029   -0.1636976601
C       -0.7917705501    0.3753305634    0.0226495724
H        0.8345731672    0.3194912931   -1.3588157780
H       -1.1677739191    1.2280521411    0.5945080643
H       -0.9470284604   -0.5193327072    0.6422917631
O       -1.6016602660    0.3069799252   -1.1572147642
H       -1.6637046615   -0.6272437903   -1.4106287501
12   
Dihedral (-135, 120) Energy -193.674361059
C        1.6145734512   -0.3595291907    0.5530081470
C        0.7295254959    0.5495181049   -0.2972998551
H        1.4633751967   -0.1774185352    1.6219422565
H        2.6744016642   -0.1990759493    0.3367438601
H        1.3869026736   -1.4119634940    0.3579009840
H        1.0117070345    1.5971482170   -0.1508233170
C       -0.7671657905    0.3553356129   -0.0192170756
H        0.8853139479    0.3278680533   -1.3572392170
H       -1.1660776988    1.1824438179    0.5793861928
H       -0.9175054670   -0.5631135722    0.5638481882
O       -1.5098193220    0.2870635616   -1.2462033136
H       -1.9543606354   -0.5726191230   -1.2782070658
12   
Dihedral (-120, -120) Energy -193.673936425
C        1.6296064589   -0.3850977213    0.6125891341
C        0.7440197563    0.4303752968   -0.3261317915
H        1.4969899084   -0.0730635581    1.6533519187
H        2.6880557541   -0.2692249675    0.3629216140
H        1.3808977037   -1.4483499058    0.5472251059
H        1.0346698379    1.4862338363   -0.2860804616
C       -0.7548461648    0.2700883234   -0.0267401399
H        0.8955012393    0.1002839480   -1.3578540991
H       -1.1981843608    1.2241334602    0.2831670689
H       -0.8970099516   -0.4327286292    0.8038353373
O       -1.4476115114   -0.2639620730   -1.1655702806
H       -2.1212245394    0.3769442063   -1.4368653922
12   
Dihedral (-120, -90) Energy -193.675314317
C        1.6253297324   -0.3755310180    0.5970466706
C        0.7103026319    0.4237227140   -0.3275747696
H        1.5142568182   -0.0530785205    1.6371246277
H        2.6767376860   -0.2548649749    0.3213971847
H        1.3822152628   -1.4409200452    0.5483210893
H        0.9979038468    1.4813961008   -0.3084043448
C       -0.7800290130    0.2576098363    0.0190543463
H        0.8392645764    0.0779232986   -1.3578371419
H       -1.2192783799    1.2037696700    0.3610050673
H       -0.8921053824   -0.4602096910    0.8378030481
O       -1.5402134017   -0.2927403617   -1.0639981950
H       -1.8635337679    0.4485493495   -1.6000914292
12   
Dihedral (-120, -60) Energy -193.676129323
C        1.6112352938   -0.3766712293    0.5684482644
C        0.6706595293    0.4345474497   -0.3199761009
H        1.5307401100   -0.0632932464    1.6138706945
H        2.6544603882   -0.2561038379    0.2633375533
H        1.3624160946   -1.4404243899    0.5162359640
H        0.9595314633    1.4913822773   -0.2969662360
C       -0.8092651753    0.2704143106    0.0710280529
H        0.7795663149    0.0977428202   -1.3567978902
H       -1.2263078656    1.2224758885    0.4295236473
H       -0.9109534724   -0.4522978445    0.8851335423
O       -1.6163762906   -0.2652716946   -0.9814090951
H       -1.5548630138    0.3531121829   -1.7285776495
12   
Dihedral (-120, -30) Energy -193.674115400
C        1.5910622217   -0.3859621201    0.5361007064
C        0.6429327275    0.4635301228   -0.3076444973
H        1.5340423091   -0.1025389791    1.5912570388
H        2.6294160658   -0.2674945704    0.2140673849
H        1.3281699772   -1.4446095231    0.4576958289
H        0.9411109606    1.5158655876   -0.2541345896
C       -0.8316013940    0.3045453035    0.1063275489
H        0.7469809406    0.1650149713   -1.3583028415
H       -1.2252398788    1.2613433749    0.4775262078
H       -0.9245807191   -0.4203426309    0.9208598936
O       -1.6771648779   -0.1879977753   -0.9384181141
H       -1.3042721078    0.1142588380   -1.7814911083
12   
Dihedral (-120, 0) Energy -193.672424736
C        1.5715345810   -0.3986049162    0.5072931314
C        0.6358212168    0.5026581487   -0.2947847906
H        1.5221416200   -0.1588491584    1.5733637121
H        2.6106094707   -0.2829079446    0.1865459017
H        1.2927192911   -1.4494622180    0.3872606330
H        0.9504696448    1.5461703748   -0.1903236393
C       -0.8410279983    0.3497823368    0.1151265320
H        0.7421256439    0.2678438895   -1.3621483483
H       -1.2325700286    1.3002377382    0.4960414979
H       -0.9246364272   -0.3828548499    0.9279349953
O       -1.7064661958   -0.0815182528   -0.9421534260
H       -1.1698545461   -0.1968970393   -1.7402940126
12   
Dihedral (-120, 30) Energy -193.674032011
C        1.5644662231   -0.4050482953    0.4778382447
C        0.6429697157    0.5438079252   -0.2845845373
H        1.5163663440   -0.2126505446    1.5535097291
H        2.6055655865   -0.2890916814    0.1638780466
H        1.2757043612   -1.4477361198    0.3132875783
H        0.9701694838    1.5766529030   -0.1244985258
C       -0.8387047264    0.3900122679    0.1073174368
H        0.7411458023    0.3721536257   -1.3637699392
H       -1.2467613297    1.3283834626    0.4919849291
H       -0.9282957429   -0.3565363814    0.9107822221
O       -1.6911225075    0.0210177238   -0.9814160977
H       -1.1605370507   -0.5052885301   -1.6004450018
12   
Dihedral (-120, 60) Energy -193.675876168
C        1.5822010859   -0.3974565192    0.4433273345
C        0.6600449971    0.5808018998   -0.2811812435
H        1.5312900965   -0.2533197176    1.5266388454
H        2.6240227398   -0.2663284504    0.1378813096
H        1.2994429950   -1.4341470228    0.2331909346
H        0.9832792243    1.6062402100   -0.0719808280
C       -0.8239980716    0.4077128478    0.0929324695
H        0.7477931464    0.4550202333   -1.3658722089
H       -1.2429698234    1.3362026133    0.4868195303
H       -0.9282037697   -0.3548561206    0.8797688342
O       -1.6565479903    0.0860589303   -1.0246498480
H       -1.3255143735   -0.7502532792   -1.3931447821
12   
Dihedral (-120, 90) Energy -193.674989941
C        1.6007654954   -0.3909151468    0.4469878783
C        0.6913780376    0.6021143654   -0.2742176829
H        1.5134355041   -0.2863374797    1.5328254860
H        2.6506615109   -0.2389094188    0.1813147375
H        1.3370629786   -1.4219891283    0.1896287276
H        0.9980780170    1.6228305350   -0.0212554473
C       -0.8013002935    0.4069290803    0.0473150922
H        0.8037019099    0.5053738549   -1.3583175855
H       -1.2293582157    1.3259480751    0.4566346383
H       -0.9337981335   -0.3753162025    0.8076439550
O       -1.5833176531    0.1150120866   -1.1181034997
H       -1.5964575633   -0.8490701748   -1.2267247548
12   
Dihedral (-120, 120) Energy -193.673752413
C        1.6472443909   -0.3600781163    0.4031015144
C        0.6958254720    0.6185755860   -0.2821744001
H        1.5710965982   -0.2857788063    1.4924189281
H        2.6876794114   -0.1652597446    0.1282185987
H        1.4133887043   -1.3913503621    0.1203466241
H        0.9719884442    1.6431700851   -0.0105310882
C       -0.7810156689    0.3631244172    0.0559289513
H        0.7916915734    0.5441728042   -1.3689921380
H       -1.2296242930    1.2453162142    0.5268925387
H       -0.8682308393   -0.4625616282    0.7741777235
O       -1.5322904350    0.0751718118   -1.1342835575
H       -1.9168206342   -0.8089236513   -1.0411821299
12   
Dihedral (-105, -120) Energy -193.674467215
C        1.6559569927   -0.3710083608    0.5196658091
C        0.7122989320    0.5347310878   -0.2673043965
H        1.5282530710   -0.2244987225    1.5964936807
H        2.7024039061   -0.1666893464    0.2757840683
H        1.4564595618   -1.4234672573    0.2971727416
H        0.9411840453    1.5804485701   -0.0292628804
C       -0.7690154146    0.2460137873    0.0135843613
H        0.8677828905    0.4118427371   -1.3427064011
H       -1.3131873525    1.1792129055    0.2040699229
H       -0.8728114054   -0.3752422133    0.9117529638
O       -1.3661485005   -0.4585704039   -1.0866106793
H       -2.0923092714    0.0828914676   -1.4288474950
12   
Dihedral (-105, -90) Energy -193.675852047
C        1.6386119558   -0.3761772756    0.5174109971
C        0.6889043610    0.5127404636   -0.2811888066
H        1.5419462654   -0.1816829777    1.5898277508
H        2.6817039686   -0.2028382721    0.2379399092
H        1.4127616779   -1.4326517932    0.3448877149
H        0.9419332074    1.5636950585   -0.0955248233
C       -0.7895292003    0.2581847916    0.0557193961
H        0.8192352648    0.3397238031   -1.3539300899
H       -1.3160129469    1.2009235157    0.2547484213
H       -0.8719949598   -0.3521128118    0.9603146223
O       -1.4646023145   -0.4796520246   -0.9713176594
H       -1.8319582639    0.1657176022   -1.5953384260
12   
Dihedral (-105, -60) Energy -193.676722464
C        1.6055118097   -0.4010226836    0.5059441196
C        0.6627252613    0.5060957836   -0.2808411437
H        1.5439385561   -0.1854851471    1.5766775391
H        2.6456927869   -0.2668575221    0.1958503819
H        1.3391324298   -1.4515437394    0.3573085161
H        0.9481332695    1.5513426083   -0.1136805974
C       -0.8146688494    0.3018725110    0.0940953321
H        0.7756027197    0.3197572200   -1.3548426443
H       -1.3000067778    1.2694739497    0.2881714989
H       -0.9045786674   -0.2937815789    1.0061787170
O       -1.5505023944   -0.4246160169   -0.8943836695
H       -1.5000308336    0.0904374432   -1.7165495933
12   
Dihedral (-105, -30) Energy -193.674840061
C        1.5706128616   -0.4269876304    0.4851664273
C        0.6443693706    0.5221010805   -0.2717410698
H        1.5278550955   -0.2286246604    1.5597855482
H        2.6101647288   -0.3157011883    0.1641441157
H        1.2732605857   -1.4670961424    0.3226039835
H        0.9578069877    1.5545573825   -0.0810225354
C       -0.8350304744    0.3563897163    0.1130346694
H        0.7559232414    0.3694534611   -1.3527578139
H       -1.2831163539    1.3417005374    0.3058336154
H       -0.9329426930   -0.2298606218    1.0315168020
O       -1.6160283223   -0.3261730172   -0.8737018324
H       -1.2220024772   -0.1341210119   -1.7389895915
12   
Dihedral (-105, 0) Energy -193.673471741
C        1.5468787593   -0.4400782433    0.4538341725
C        0.6372551137    0.5560557149   -0.2615667461
H        1.5072522313   -0.2853624389    1.5354859442
H        2.5878505609   -0.3316996405    0.1365145269
H        1.2362033995   -1.4696979927    0.2516196733
H        0.9699430007    1.5722674867   -0.0225297920
C       -0.8448060439    0.4039216830    0.1152555355
H        0.7457203092    0.4641197597   -1.3500212408
H       -1.2881654780    1.3868900296    0.3136731679
H       -0.9384293267   -0.1867674477    1.0349918328
O       -1.6433564428   -0.2219920847   -0.8973537973
H       -1.0653295781   -0.4319973517   -1.6461148248
12   
Dihedral (-105, 30) Energy -193.675291568
C        1.5383115242   -0.4424768585    0.4190754279
C        0.6429587124    0.5966342843   -0.2526446413
H        1.4932009182   -0.3418956836    1.5069201815
H        2.5820795495   -0.3284499637    0.1133890577
H        1.2250309622   -1.4609820651    0.1667084649
H        0.9858858660    1.5953868406    0.0404212810
C       -0.8428206191    0.4395045774    0.1039204937
H        0.7437106604    0.5595979949   -1.3437695959
H       -1.3016199105    1.4106627588    0.3084166510
H       -0.9436673266   -0.1684576578    1.0150736014
O       -1.6263470724   -0.1277854499   -0.9520898169
H       -1.0457690775   -0.7160720003   -1.4615512414
12   
Dihedral (-105, 60) Energy -193.677217062
C        1.5541359394   -0.4342292439    0.3854652465
C        0.6614801029    0.6304493090   -0.2495988658
H        1.4963764296   -0.3859993057    1.4766128499
H        2.6010316326   -0.3029936742    0.0980539602
H        1.2515141260   -1.4423466816    0.0814781075
H        0.9989138618    1.6164192197    0.0903354080
C       -0.8273692702    0.4550188039    0.0838163168
H        0.7600588755    0.6326796204   -1.3399489844
H       -1.2935206282    1.4200806391    0.2953056445
H       -0.9478128170   -0.1701886553    0.9812271514
O       -1.5904567241   -0.0675620854   -1.0079966161
H       -1.2134987060   -0.9356667084   -1.2310279623
12   
Dihedral (-105, 90) Energy -193.676454457
C        1.5863499955   -0.4187243553    0.3630595715
C        0.6840419548    0.6515751529   -0.2480079833
H        1.5119599976   -0.4117411073    1.4546271332
H        2.6352639971   -0.2598208724    0.0976149297
H        1.3046160104   -1.4183368565    0.0150543304
H        1.0000353268    1.6318756463    0.1277013147
C       -0.8049406245    0.4435408724    0.0603566821
H        0.7893319789    0.6834237767   -1.3362543938
H       -1.2775832245    1.4013475596    0.2954378586
H       -0.9376640814   -0.2065396961    0.9360293689
O       -1.5335858950   -0.0557717452   -1.0690977145
H       -1.5069409522   -1.0252251050   -1.0326863875
12   
Dihedral (-105, 120) Energy -193.675266666
C        1.6200813972   -0.3970127193    0.3537819080
C        0.6981839350    0.6607161339   -0.2483151649
H        1.5417801212   -0.4051413192    1.4452125807
H        2.6664007627   -0.2127223269    0.0943790143
H        1.3566466170   -1.3951320728   -0.0107900427
H        0.9869302466    1.6440058643    0.1410996906
C       -0.7839597601    0.4090336933    0.0469236950
H        0.8084485037    0.7051142689   -1.3353170414
H       -1.2814152949    1.3446514331    0.3280856639
H       -0.8977824485   -0.2835143348    0.8907788326
O       -1.4493171424   -0.0907284433   -1.1244879715
H       -1.8150273748   -0.9636765699   -0.9175219721
12   
Dihedral (-90, -120) Energy -193.676817572
C        1.6324860554   -0.4110469206    0.4690673372
C        0.7117348559    0.5838104128   -0.2318326305
H        1.5104274867   -0.3492980747    1.5545614995
H        2.6834661679   -0.2166652815    0.2368781110
H        1.4013837009   -1.4346618032    0.1600752067
H        0.9546619645    1.5957654799    0.1166425459
C       -0.7682172730    0.3045248424    0.0283075979
H        0.8671014912    0.5709656337   -1.3144260122
H       -1.3355443617    1.2438735252    0.0278966533
H       -0.9045121424   -0.1562926076    1.0144725582
O       -1.2912290001   -0.5863898455   -0.9696575266
H       -2.0108778242   -0.1289262628   -1.4281940545
12   
Dihedral (-90, -90) Energy -193.678210473
C        1.6126768445   -0.4168807371    0.4669187087
C        0.6885866502    0.5675546675   -0.2434017539
H        1.5270469617   -0.3086409834    1.5522023466
H        2.6594086082   -0.2557661686    0.1938469358
H        1.3484121150   -1.4460990590    0.2071229942
H        0.9559631637    1.5881742035    0.0592774658
C       -0.7888532721    0.3163439454    0.0688815383
H        0.8219955064    0.5145076028   -1.3289062219
H       -1.3491716153    1.2609542681    0.0840330966
H       -0.8973553411   -0.1401592548    1.0574756459
O       -1.3862572673   -0.5965170042   -0.8611148822
H       -1.7415621698   -0.0678647022   -1.5924689958
12   
Dihedral (-90, -60) Energy -193.679161486
C        1.5783535913   -0.4387321910    0.4530924091
C        0.6627423367    0.5639393010   -0.2431735510
H        1.5282375232   -0.3119602682    1.5383329740
H        2.6208846162   -0.3142250500    0.1469506476
H        1.2733385730   -1.4622848219    0.2171225774
H        0.9603376177    1.5798225475    0.0450159702
C       -0.8143309848    0.3563234969    0.1026335998
H        0.7811358394    0.5061628471   -1.3318633651
H       -1.3413865617    1.3218962704    0.1184058347
H       -0.9227822260   -0.0913311629    1.0938058462
O       -1.4728496442   -0.5421164244   -0.7948160671
H       -1.4027741616   -0.1518409392   -1.6816744473
12   
Dihedral (-90, -30) Energy -193.677485179
C        1.5420677573   -0.4616232269    0.4281947095
C        0.6438311195    0.5788547205   -0.2357180792
H        1.5062407185   -0.3556649315    1.5158934950
H        2.5838302103   -0.3553186641    0.1128381701
H        1.2112220739   -1.4736873109    0.1772853801
H        0.9680333983    1.5788862647    0.0759948946
C       -0.8354270957    0.4074870628    0.1165370062
H        0.7585052778    0.5566125550   -1.3274368041
H       -1.3280162449    1.3906967131    0.1323579758
H       -0.9495742792   -0.0326162173    1.1114716328
O       -1.5388588678   -0.4504608467   -0.7883181147
H       -1.1109622500   -0.3674989797   -1.6552588538
12   
Dihedral (-90, 0) Energy -193.676233564
C        1.5157556082   -0.4722754802    0.3926916799
C        0.6361194579    0.6107657866   -0.2281173999
H        1.4746938312   -0.4152797936    1.4836829615
H        2.5602674573   -0.3647884267    0.0872810933
H        1.1793393024   -1.4714011478    0.0982763982
H        0.9794038248    1.5889293138    0.1285201625
C       -0.8458132273    0.4531175635    0.1136454952
H        0.7468720387    0.6394623009   -1.3197360593
H       -1.3325459816    1.4356893834    0.1354830913
H       -0.9574924923    0.0083273248    1.1101553718
O       -1.5653458883   -0.3540176514   -0.8277227227
H       -0.9403558863   -0.6428910183   -1.5103427057
12   
Dihedral (-90, 30) Energy -193.677934597
C        1.5058561162   -0.4732391285    0.3557903465
C        0.6425191817    0.6473772364   -0.2213476876
H        1.4456976567   -0.4778061990    1.4474874682
H        2.5556768167   -0.3537354652    0.0744867984
H        1.1797181704   -1.4576598326    0.0024412314
H        0.9936227022    1.6019690224    0.1880215075
C       -0.8441342230    0.4866436595    0.0956214132
H        0.7550345204    0.7226511065   -1.3089989393
H       -1.3408532804    1.4606344822    0.1225988919
H       -0.9664946628    0.0253258939    1.0866797404
O       -1.5513051099   -0.2670640614   -0.8955617618
H       -0.9243969556   -0.8994589814   -1.2833654907
12   
Dihedral (-90, 60) Energy -193.679806774
C        1.5211799469   -0.4648098278    0.3239030748
C        0.6623098858    0.6763590059   -0.2181442330
H        1.4384085836   -0.5252881261    1.4128740299
H        2.5761431316   -0.3263522088    0.0722163748
H        1.2124085666   -1.4322898322   -0.0879409273
H        1.0042455339    1.6143438409    0.2361124939
C       -0.8283587676    0.4992990419    0.0699813978
H        0.7823417705    0.7884600724   -1.3003597367
H       -1.3286281689    1.4703160413    0.1015112963
H       -0.9754808748    0.0197008982    1.0494269333
O       -1.5140696346   -0.2136236420   -0.9634436767
H       -1.0996351105   -1.0904590472   -1.0324026550
12   
Dihedral (-90, 90) Energy -193.679184080