Entering Gaussian System, Link 0=g09
Input=input.com
Output=input.log
Initial command:
/usr/remote/g09/l1.exe "/tmp/Gau-28559.inp" -scrdir="/tmp/"
Entering Link 1 = /usr/remote/g09/l1.exe PID=     28561.

Copyright (c) 1988,1990,1992,1993,1995,1998,2003,2009,2013,
        Gaussian, Inc.  All Rights Reserved.

This is part of the Gaussian(R) 09 program.  It is based on
the Gaussian(R) 03 system (copyright 2003, Gaussian, Inc.),
the Gaussian(R) 98 system (copyright 1998, Gaussian, Inc.),
the Gaussian(R) 94 system (copyright 1995, Gaussian, Inc.),
the Gaussian 92(TM) system (copyright 1992, Gaussian, Inc.),
the Gaussian 90(TM) system (copyright 1990, Gaussian, Inc.),
the Gaussian 88(TM) system (copyright 1988, Gaussian, Inc.),
the Gaussian 86(TM) system (copyright 1986, Carnegie Mellon
University), and the Gaussian 82(TM) system (copyright 1983,
Carnegie Mellon University). Gaussian is a federally registered
trademark of Gaussian, Inc.

This software contains proprietary and confidential information,
including trade secrets, belonging to Gaussian, Inc.

This software is provided under written license and may be
used, copied, transmitted, or stored only in accord with that
written license.

The following legend is applicable only to US Government
contracts under FAR:

                RESTRICTED RIGHTS LEGEND

Use, reproduction and disclosure by the US Government is
subject to restrictions as set forth in subparagraphs (a)
and (c) of the Commercial Computer Software - Restricted
Rights clause in FAR 52.227-19.

Gaussian, Inc.
340 Quinnipiac St., Bldg. 40, Wallingford CT 06492


---------------------------------------------------------------
Warning -- This program may not be used in any manner that
competes with the business of Gaussian, Inc. or will provide
assistance to any competitor of Gaussian, Inc.  The licensee
of this program is prohibited from giving any competitor of
Gaussian, Inc. access to this program.  By using this program,
the user acknowledges that Gaussian, Inc. is engaged in the
business of creating and licensing software in the field of
computational chemistry and represents and warrants to the
licensee that it is not a competitor of Gaussian, Inc. and that
it will not use this program in any manner prohibited above.
---------------------------------------------------------------


Cite this work as:
Gaussian 09, Revision D.01,
M. J. Frisch, G. W. Trucks, H. B. Schlegel, G. E. Scuseria,
M. A. Robb, J. R. Cheeseman, G. Scalmani, V. Barone, B. Mennucci,
G. A. Petersson, H. Nakatsuji, M. Caricato, X. Li, H. P. Hratchian,
A. F. Izmaylov, J. Bloino, G. Zheng, J. L. Sonnenberg, M. Hada,
M. Ehara, K. Toyota, R. Fukuda, J. Hasegawa, M. Ishida, T. Nakajima,
Y. Honda, O. Kitao, H. Nakai, T. Vreven, J. A. Montgomery, Jr.,
J. E. Peralta, F. Ogliaro, M. Bearpark, J. J. Heyd, E. Brothers,
K. N. Kudin, V. N. Staroverov, T. Keith, R. Kobayashi, J. Normand,
K. Raghavachari, A. Rendell, J. C. Burant, S. S. Iyengar, J. Tomasi,
M. Cossi, N. Rega, J. M. Millam, M. Klene, J. E. Knox, J. B. Cross,
V. Bakken, C. Adamo, J. Jaramillo, R. Gomperts, R. E. Stratmann,
O. Yazyev, A. J. Austin, R. Cammi, C. Pomelli, J. W. Ochterski,
R. L. Martin, K. Morokuma, V. G. Zakrzewski, G. A. Voth,
P. Salvador, J. J. Dannenberg, S. Dapprich, A. D. Daniels,
O. Farkas, J. B. Foresman, J. V. Ortiz, J. Cioslowski,
and D. J. Fox, Gaussian, Inc., Wallingford CT, 2013.

******************************************
Gaussian 09:  ES64L-G09RevD.01 24-Apr-2013
             3-Sep-2020
******************************************
%Mem=6GB
%NProcShared=2
Will use up to    2 processors via shared memory.
%Chk=ligand
-----------------------------
#HF/6-31G(d) Opt=ModRedundant
-----------------------------
1/18=120,19=15,38=1/1,3;
2/9=110,12=2,17=6,18=5,40=1/2;
3/5=1,6=6,7=1,11=9,16=1,25=1,30=1,71=1/1,2,3;
4//1;
5/5=2,38=5/2;
6/7=2,8=2,9=2,10=2,28=1/1;
7//1,2,3,16;
1/18=20,19=15/3(2);
2/9=110/2;
99//99;
2/9=110/2;
3/5=1,6=6,7=1,11=9,16=1,25=1,30=1,71=1/1,2,3;
4/5=5,16=3,69=1/1;
5/5=2,38=5/2;
7//1,2,3,16;
1/18=20,19=15/3(-5);
2/9=110/2;
6/7=2,8=2,9=2,10=2,19=2,28=1/1;
99/9=1/99;
----
hooh
----
Symbolic Z-matrix:
Charge =  0 Multiplicity = 1
H                    -0.90096  -0.50851  -0.76735
O                    -0.72805   0.02496   0.02399
O                     0.72762   0.03316  -0.02697
H                     0.90782  -0.41394   0.81466

The following ModRedundant input section has been read:
D       1       2       3       4 90.000 B
D       1       2       3       4 F

Iteration  1 RMS(Cart)=  0.07594914 RMS(Int)=  0.99903892
Iteration  2 RMS(Cart)=  0.07578706 RMS(Int)=  0.91739312
Iteration  3 RMS(Cart)=  0.07517862 RMS(Int)=  0.83574341
Iteration  4 RMS(Cart)=  0.07469464 RMS(Int)=  0.75409462
Iteration  5 RMS(Cart)=  0.07438232 RMS(Int)=  0.67244676
Iteration  6 RMS(Cart)=  0.07429018 RMS(Int)=  0.59080001
Iteration  7 RMS(Cart)=  0.07443196 RMS(Int)=  0.50915467
Iteration  8 RMS(Cart)=  0.07478524 RMS(Int)=  0.42751134
Iteration  9 RMS(Cart)=  0.07529381 RMS(Int)=  0.34587109
Iteration 10 RMS(Cart)=  0.07587320 RMS(Int)=  0.26423635
Iteration 11 RMS(Cart)=  0.07641870 RMS(Int)=  0.18261391
Iteration 12 RMS(Cart)=  0.07681528 RMS(Int)=  0.10103241
Iteration 13 RMS(Cart)=  0.07691658 RMS(Int)=  0.02002339
Iteration 14 RMS(Cart)=  0.01825156 RMS(Int)=  0.00032234
Iteration 15 RMS(Cart)=  0.00024151 RMS(Int)=  0.00000004
Iteration 16 RMS(Cart)=  0.00000006 RMS(Int)=  0.00000000
Iteration  1 RMS(Cart)=  0.00000000 RMS(Int)=  0.00000000

GradGradGradGradGradGradGradGradGradGradGradGradGradGradGradGradGradGrad
Berny optimization.
Initialization pass.
                       ----------------------------
                       !    Initial Parameters    !
                       ! (Angstroms and Degrees)  !
--------------------------                            --------------------------
! Name  Definition              Value          Derivative Info.                !
--------------------------------------------------------------------------------
! R1    R(1,2)                  0.9699         estimate D2E/DX2                !
! R2    R(2,3)                  1.4566         estimate D2E/DX2                !
! R3    R(3,4)                  0.9699         estimate D2E/DX2                !
! A1    A(1,2,3)               98.7842         estimate D2E/DX2                !
! A2    A(2,3,4)               98.7851         estimate D2E/DX2                !
! D1    D(1,2,3,4)             90.0            Frozen                          !
--------------------------------------------------------------------------------
Trust Radius=3.00D-01 FncErr=1.00D-07 GrdErr=1.00D-07
Number of steps in this run=     20 maximum allowed number of steps=    100.
GradGradGradGradGradGradGradGradGradGradGradGradGradGradGradGradGradGrad

                      Input orientation:
---------------------------------------------------------------------
Center     Atomic      Atomic             Coordinates (Angstroms)
Number     Number       Type             X           Y           Z
---------------------------------------------------------------------
  1          1           0       -0.853896    0.079822   -0.712021
  2          8           0       -0.723741   -0.561166    0.004143
  3          8           0        0.731975   -0.547868    0.052735
  4          1           0        0.852096    0.164880    0.699471
---------------------------------------------------------------------
                Distance matrix (angstroms):
                1          2          3          4
 1  H    0.000000
 2  O    0.969895   0.000000
 3  O    1.869180   1.456588   0.000000
 4  H    2.215842   1.869194   0.969900   0.000000
Stoichiometry    H2O2
Framework group  C1[X(H2O2)]
Deg. of freedom     6
Full point group                 C1      NOp   1
Largest Abelian subgroup         C1      NOp   1
Largest concise Abelian subgroup C1      NOp   1
                     Standard orientation:
---------------------------------------------------------------------
Center     Atomic      Atomic             Coordinates (Angstroms)
Number     Number       Type             X           Y           Z
---------------------------------------------------------------------
  1          1           0        0.955562    0.602458    0.560704
  2          8           0        0.722369   -0.075306   -0.092714
  3          8           0       -0.722368   -0.075311    0.092711
  4          1           0       -0.955576    0.602478   -0.560682
---------------------------------------------------------------------
Rotational constants (GHZ):    294.5288119     25.9942197     25.9591826
Standard basis: 6-31G(d) (6D, 7F)
There are    34 symmetry adapted cartesian basis functions of A   symmetry.
There are    34 symmetry adapted basis functions of A   symmetry.
34 basis functions,    64 primitive gaussians,    34 cartesian basis functions
 9 alpha electrons        9 beta electrons
   nuclear repulsion energy        36.7492704923 Hartrees.
NAtoms=    4 NActive=    4 NUniq=    4 SFac= 1.00D+00 NAtFMM=   60 NAOKFM=F Big=F
Integral buffers will be    131072 words long.
Raffenetti 1 integral format.
Two-electron integral symmetry is turned on.
One-electron integrals computed using PRISM.
NBasis=    34 RedAO= T EigKep=  1.13D-02  NBF=    34
NBsUse=    34 1.00D-06 EigRej= -1.00D+00 NBFU=    34
ExpMin= 1.61D-01 ExpMax= 5.48D+03 ExpMxC= 8.25D+02 IAcc=1 IRadAn=         1 AccDes= 0.00D+00
Harris functional with IExCor=  205 and IRadAn=       1 diagonalized for initial guess.
HarFok:  IExCor=  205 AccDes= 0.00D+00 IRadAn=         1 IDoV= 1 UseB2=F ITyADJ=14
ICtDFT=  3500011 ScaDFX=  1.000000  1.000000  1.000000  1.000000
FoFCou: FMM=F IPFlag=           0 FMFlag=      100000 FMFlg1=           0
     NFxFlg=           0 DoJE=T BraDBF=F KetDBF=T FulRan=T
     wScrn=  0.000000 ICntrl=     500 IOpCl=  0 I1Cent=   200000004 NGrid=           0
     NMat0=    1 NMatS0=      1 NMatT0=    0 NMatD0=    1 NMtDS0=    0 NMtDT0=    0
Petite list used in FoFCou.
Keep R1 ints in memory in canonical form, NReq=1030051.
Requested convergence on RMS density matrix=1.00D-08 within 128 cycles.
Requested convergence on MAX density matrix=1.00D-06.
Requested convergence on             energy=1.00D-06.
No special actions if energy rises.
SCF Done:  E(RHF) =  -150.759744852     A.U. after   12 cycles
        NFock= 12  Conv=0.90D-08     -V/T= 2.0037

**********************************************************************

        Population analysis using the SCF density.

**********************************************************************

Orbital symmetries:
   Occupied  (A) (A) (A) (A) (A) (A) (A) (A) (A)
   Virtual   (A) (A) (A) (A) (A) (A) (A) (A) (A) (A) (A) (A)
             (A) (A) (A) (A) (A) (A) (A) (A) (A) (A) (A) (A)
             (A)
The electronic state is 1-A.
Alpha  occ. eigenvalues --  -20.63803 -20.63773  -1.47123  -1.20917  -0.72126
Alpha  occ. eigenvalues --   -0.69183  -0.59773  -0.50147  -0.49735
Alpha virt. eigenvalues --    0.20898   0.21765   0.30697   1.04007   1.05417
Alpha virt. eigenvalues --    1.07073   1.07631   1.18812   1.21125   1.27276
Alpha virt. eigenvalues --    1.33547   1.44474   1.56663   1.77420   1.79931
Alpha virt. eigenvalues --    1.91626   2.13188   2.30125   2.62734   2.63878
Alpha virt. eigenvalues --    2.77630   2.85033   3.28937   3.82283   4.06156
      Condensed to atoms (all electrons):
           1          2          3          4
 1  H    0.314954   0.249948  -0.024513  -0.000412
 2  O    0.249948   8.142885   0.091702  -0.024513
 3  O   -0.024513   0.091702   8.142889   0.249947
 4  H   -0.000412  -0.024513   0.249947   0.314955
Mulliken charges:
           1
 1  H    0.460024
 2  O   -0.460022
 3  O   -0.460025
 4  H    0.460023
Sum of Mulliken charges =   0.00000
Mulliken charges with hydrogens summed into heavy atoms:
           1
 2  O    0.000002
 3  O   -0.000002
Electronic spatial extent (au):  <R**2>=             65.8909
Charge=              0.0000 electrons
Dipole moment (field-independent basis, Debye):
X=              0.0000    Y=              2.6170    Z=              0.0000  Tot=              2.6170
Quadrupole moment (field-independent basis, Debye-Ang):
XX=            -10.6574   YY=            -10.6103   ZZ=            -10.8804
XY=             -0.0001   XZ=              2.6491   YZ=              0.0000
Traceless Quadrupole moment (field-independent basis, Debye-Ang):
XX=              0.0587   YY=              0.1057   ZZ=             -0.1644
XY=             -0.0001   XZ=              2.6491   YZ=              0.0000
Octapole moment (field-independent basis, Debye-Ang**2):
XXX=             -0.0001  YYY=              2.1153  ZZZ=              0.0001  XYY=             -0.0001
XXY=              3.1079  XXZ=              0.0000  XZZ=              0.0001  YZZ=              1.1232
YYZ=              0.0000  XYZ=              1.6590
Hexadecapole moment (field-independent basis, Debye-Ang**3):
XXXX=            -42.6397 YYYY=             -9.6745 ZZZZ=             -9.8918 XXXY=             -0.0001
XXXZ=              3.1989 YYYX=             -0.0001 YYYZ=              0.0000 ZZZX=              2.0524
ZZZY=              0.0000 XXYY=             -8.6322 XXZZ=             -8.7874 YYZZ=             -2.8444
XXYZ=              0.0000 YYXZ=              1.2413 ZZXY=              0.0000
N-N= 3.674927049232D+01 E-N=-4.312880754264D+02  KE= 1.502016255570D+02
Calling FoFJK, ICntrl=      2127 FMM=F ISym2X=0 I1Cent= 0 IOpClX= 0 NMat=1 NMatS=1 NMatT=0.
***** Axes restored to original set *****
-------------------------------------------------------------------
Center     Atomic                   Forces (Hartrees/Bohr)
Number     Number              X              Y              Z
-------------------------------------------------------------------
  1        1          -0.003490978   -0.017302287    0.013670627
  2        8           0.037531280    0.017327714   -0.018118579
  3        8          -0.037794687    0.018534103    0.016282356
  4        1           0.003754385   -0.018559530   -0.011834403
-------------------------------------------------------------------
Cartesian Forces:  Max     0.037794687 RMS     0.020557324

GradGradGradGradGradGradGradGradGradGradGradGradGradGradGradGradGradGrad
Berny optimization.
FormGI is forming the generalized inverse of G from B-inverse, IUseBI=4.
Internal  Forces:  Max     0.033871783 RMS     0.019828792
Search for a local minimum.
Step number   1 out of a maximum of   20
All quantities printed in internal units (Hartrees-Bohrs-Radians)
Mixed Optimization -- RFO/linear search
Second derivative matrix not updated -- first step.
The second derivative matrix:
                      R1        R2        R3        A1        A2
       R1           0.53398
       R2           0.00000   0.37395
       R3           0.00000   0.00000   0.53397
       A1           0.00000   0.00000   0.00000   0.16000
       A2           0.00000   0.00000   0.00000   0.00000   0.16000
       D1           0.00000   0.00000   0.00000   0.00000   0.00000
                      D1
       D1           0.00546
ITU=  0
 Eigenvalues ---    0.16000   0.16000   0.37395   0.53397   0.53398
 Eigenvalues --- 1000.00000
RFO step:  Lambda=-6.35587970D-03 EMin= 1.60000000D-01
Linear search not attempted -- first point.
Iteration  1 RMS(Cart)=  0.04543509 RMS(Int)=  0.00212316
Iteration  2 RMS(Cart)=  0.00234518 RMS(Int)=  0.00000210
Iteration  3 RMS(Cart)=  0.00000181 RMS(Int)=  0.00000000
Iteration  4 RMS(Cart)=  0.00000000 RMS(Int)=  0.00000000
Iteration  1 RMS(Cart)=  0.00000000 RMS(Int)=  0.00000000
Variable       Old X    -DE/DX   Delta X   Delta X   Delta X     New X
                             (Linear)    (Quad)   (Total)
R1        1.83284  -0.02106   0.00000  -0.03898  -0.03898   1.79386
R2        2.75255  -0.03387   0.00000  -0.08907  -0.08907   2.66349
R3        1.83285  -0.02107   0.00000  -0.03899  -0.03899   1.79386
A1        1.72411   0.01188   0.00000   0.07143   0.07143   1.79554
A2        1.72412   0.01188   0.00000   0.07141   0.07141   1.79553
D1        1.57080   0.00650   0.00000   0.00000   0.00000   1.57080
     Item               Value     Threshold  Converged?
Maximum Force            0.033872     0.000450     NO
RMS     Force            0.021526     0.000300     NO
Maximum Displacement     0.046362     0.001800     NO
RMS     Displacement     0.044754     0.001200     NO
Predicted change in Energy=-3.245226D-03
GradGradGradGradGradGradGradGradGradGradGradGradGradGradGradGradGradGrad

                      Input orientation:
---------------------------------------------------------------------
Center     Atomic      Atomic             Coordinates (Angstroms)
Number     Number       Type             X           Y           Z
---------------------------------------------------------------------
  1          1           0       -0.875618    0.067874   -0.713231
  2          8           0       -0.699373   -0.550221   -0.014654
  3          8           0        0.707441   -0.535423    0.070335
  4          1           0        0.873983    0.153438    0.701878
---------------------------------------------------------------------
                Distance matrix (angstroms):
                1          2          3          4
 1  H    0.000000
 2  O    0.949270   0.000000
 3  O    1.866553   1.409457   0.000000
 4  H    2.251879   1.866548   0.949270   0.000000
Stoichiometry    H2O2
Framework group  C1[X(H2O2)]
Deg. of freedom     6
Full point group                 C1      NOp   1
Largest Abelian subgroup         C1      NOp   1
Largest concise Abelian subgroup C1      NOp   1
                     Standard orientation:
---------------------------------------------------------------------
Center     Atomic      Atomic             Coordinates (Angstroms)
Number     Number       Type             X           Y           Z
---------------------------------------------------------------------
  1          1           0        0.995212    0.581636    0.526603
  2          8           0        0.698459   -0.072704   -0.093792
  3          8           0       -0.698460   -0.072708    0.093788
  4          1           0       -0.995207    0.581662   -0.526578
---------------------------------------------------------------------
Rotational constants (GHZ):    318.2386529     27.4024943     27.3494648
Standard basis: 6-31G(d) (6D, 7F)
There are    34 symmetry adapted cartesian basis functions of A   symmetry.
There are    34 symmetry adapted basis functions of A   symmetry.
34 basis functions,    64 primitive gaussians,    34 cartesian basis functions
 9 alpha electrons        9 beta electrons
   nuclear repulsion energy        37.7190461019 Hartrees.
NAtoms=    4 NActive=    4 NUniq=    4 SFac= 1.00D+00 NAtFMM=   60 NAOKFM=F Big=F
Integral buffers will be    131072 words long.
Raffenetti 1 integral format.
Two-electron integral symmetry is turned on.
One-electron integrals computed using PRISM.
NBasis=    34 RedAO= T EigKep=  1.03D-02  NBF=    34
NBsUse=    34 1.00D-06 EigRej= -1.00D+00 NBFU=    34
Initial guess from the checkpoint file:  "ligand.chk"
B after Tr=     0.000000    0.000000    0.000000
     Rot=    0.999973   -0.000002   -0.007358    0.000001 Ang=  -0.84 deg.
ExpMin= 1.61D-01 ExpMax= 5.48D+03 ExpMxC= 8.25D+02 IAcc=1 IRadAn=         1 AccDes= 0.00D+00
Harris functional with IExCor=  205 and IRadAn=       1 diagonalized for initial guess.
HarFok:  IExCor=  205 AccDes= 0.00D+00 IRadAn=         1 IDoV= 1 UseB2=F ITyADJ=14
ICtDFT=  3500011 ScaDFX=  1.000000  1.000000  1.000000  1.000000
FoFCou: FMM=F IPFlag=           0 FMFlag=      100000 FMFlg1=           0
     NFxFlg=           0 DoJE=T BraDBF=F KetDBF=T FulRan=T
     wScrn=  0.000000 ICntrl=     500 IOpCl=  0 I1Cent=   200000004 NGrid=           0
     NMat0=    1 NMatS0=      1 NMatT0=    0 NMatD0=    1 NMtDS0=    0 NMtDT0=    0
Petite list used in FoFCou.
Keep R1 ints in memory in canonical form, NReq=1030051.
Requested convergence on RMS density matrix=1.00D-08 within 128 cycles.
Requested convergence on MAX density matrix=1.00D-06.
Requested convergence on             energy=1.00D-06.
No special actions if energy rises.
SCF Done:  E(RHF) =  -150.763461922     A.U. after   11 cycles
        NFock= 11  Conv=0.78D-08     -V/T= 2.0027
Calling FoFJK, ICntrl=      2127 FMM=F ISym2X=0 I1Cent= 0 IOpClX= 0 NMat=1 NMatS=1 NMatT=0.
***** Axes restored to original set *****
-------------------------------------------------------------------
Center     Atomic                   Forces (Hartrees/Bohr)
Number     Number              X              Y              Z
-------------------------------------------------------------------
  1        1           0.000582164   -0.001659350   -0.002701959
  2        8           0.011891013    0.001852503    0.004672179
  3        8          -0.011914538    0.001189579   -0.004828173
  4        1          -0.000558639   -0.001382732    0.002857953
-------------------------------------------------------------------
Cartesian Forces:  Max     0.011914538 RMS     0.005432346

GradGradGradGradGradGradGradGradGradGradGradGradGradGradGradGradGradGrad
Berny optimization.
Using GEDIIS/GDIIS optimizer.
FormGI is forming the generalized inverse of G from B-inverse, IUseBI=4.
Internal  Forces:  Max     0.012570619 RMS     0.005631965
Search for a local minimum.
Step number   2 out of a maximum of   20
All quantities printed in internal units (Hartrees-Bohrs-Radians)
Mixed Optimization -- RFO/linear search
Update second derivatives using D2CorX and points    1    2
DE= -3.72D-03 DEPred=-3.25D-03 R= 1.15D+00
TightC=F SS=  1.41D+00  RLast= 1.46D-01 DXNew= 5.0454D-01 4.3652D-01
Trust test= 1.15D+00 RLast= 1.46D-01 DXMaxT set to 4.37D-01
The second derivative matrix:
                      R1        R2        R3        A1        A2
       R1           0.55203
       R2          -0.02599   0.27889
       R3           0.01805  -0.02600   0.55203
       A1          -0.01370   0.01058  -0.01370   0.16976
       A2          -0.01369   0.01058  -0.01369   0.00976   0.16975
       D1          -0.00455  -0.00443  -0.00455   0.00269   0.00269
                      D1
       D1           0.00570
ITU=  1  0
Use linear search instead of GDIIS.
 Eigenvalues ---    0.16000   0.17606   0.27565   0.53398   0.57677
 Eigenvalues --- 1000.00000
RFO step:  Lambda=-4.19950547D-04 EMin= 1.59999999D-01
Quartic linear search produced a step of  0.14938.
Iteration  1 RMS(Cart)=  0.01971107 RMS(Int)=  0.00004724
Iteration  2 RMS(Cart)=  0.00004773 RMS(Int)=  0.00000000
Iteration  3 RMS(Cart)=  0.00000000 RMS(Int)=  0.00000000
Iteration  1 RMS(Cart)=  0.00000000 RMS(Int)=  0.00000000
Variable       Old X    -DE/DX   Delta X   Delta X   Delta X     New X
                             (Linear)    (Quad)   (Total)
R1        1.79386   0.00080  -0.00582   0.00529  -0.00053   1.79333
R2        2.66349  -0.01257  -0.01330  -0.03006  -0.04337   2.62012
R3        1.79386   0.00080  -0.00582   0.00529  -0.00053   1.79333
A1        1.79554  -0.00107   0.01067  -0.01580  -0.00513   1.79041
A2        1.79553  -0.00106   0.01067  -0.01579  -0.00512   1.79041
D1        1.57080   0.00536   0.00000   0.00000   0.00000   1.57080
     Item               Value     Threshold  Converged?
Maximum Force            0.012571     0.000450     NO
RMS     Force            0.005684     0.000300     NO
Maximum Displacement     0.022225     0.001800     NO
RMS     Displacement     0.019687     0.001200     NO
Predicted change in Energy=-2.847219D-04
GradGradGradGradGradGradGradGradGradGradGradGradGradGradGradGradGradGrad

                      Input orientation:
---------------------------------------------------------------------
Center     Atomic      Atomic             Coordinates (Angstroms)
Number     Number       Type             X           Y           Z
---------------------------------------------------------------------
  1          1           0       -0.863858    0.068548   -0.707310
  2          8           0       -0.688176   -0.550158   -0.009514
  3          8           0        0.696245   -0.536050    0.065224
  4          1           0        0.862222    0.153329    0.695929
---------------------------------------------------------------------
                Distance matrix (angstroms):
                1          2          3          4
 1  H    0.000000
 2  O    0.948989   0.000000
 3  O    1.842896   1.386508   0.000000
 4  H    2.226122   1.842900   0.948989   0.000000
Stoichiometry    H2O2
Framework group  C1[X(H2O2)]
Deg. of freedom     6
Full point group                 C1      NOp   1
Largest Abelian subgroup         C1      NOp   1
Largest concise Abelian subgroup C1      NOp   1
                     Standard orientation:
---------------------------------------------------------------------
Center     Atomic      Atomic             Coordinates (Angstroms)
Number     Number       Type             X           Y           Z
---------------------------------------------------------------------
  1          1           0        0.980486    0.582162    0.526818
  2          8           0        0.686851   -0.072771   -0.094006
  3          8           0       -0.686851   -0.072767    0.094008
  4          1           0       -0.980490    0.582140   -0.526841
---------------------------------------------------------------------
Rotational constants (GHZ):    317.6712352     28.2784019     28.2219842
Standard basis: 6-31G(d) (6D, 7F)
There are    34 symmetry adapted cartesian basis functions of A   symmetry.
There are    34 symmetry adapted basis functions of A   symmetry.
34 basis functions,    64 primitive gaussians,    34 cartesian basis functions
 9 alpha electrons        9 beta electrons
   nuclear repulsion energy        38.1803223391 Hartrees.
NAtoms=    4 NActive=    4 NUniq=    4 SFac= 1.00D+00 NAtFMM=   60 NAOKFM=F Big=F
Integral buffers will be    131072 words long.
Raffenetti 1 integral format.
Two-electron integral symmetry is turned on.
One-electron integrals computed using PRISM.
NBasis=    34 RedAO= T EigKep=  9.73D-03  NBF=    34
NBsUse=    34 1.00D-06 EigRej= -1.00D+00 NBFU=    34
Initial guess from the checkpoint file:  "ligand.chk"
B after Tr=     0.000000    0.000000    0.000000
     Rot=    1.000000    0.000021   -0.000187   -0.000001 Ang=   0.02 deg.
ExpMin= 1.61D-01 ExpMax= 5.48D+03 ExpMxC= 8.25D+02 IAcc=1 IRadAn=         1 AccDes= 0.00D+00
Harris functional with IExCor=  205 and IRadAn=       1 diagonalized for initial guess.
HarFok:  IExCor=  205 AccDes= 0.00D+00 IRadAn=         1 IDoV= 1 UseB2=F ITyADJ=14
ICtDFT=  3500011 ScaDFX=  1.000000  1.000000  1.000000  1.000000
FoFCou: FMM=F IPFlag=           0 FMFlag=      100000 FMFlg1=           0
     NFxFlg=           0 DoJE=T BraDBF=F KetDBF=T FulRan=T
     wScrn=  0.000000 ICntrl=     500 IOpCl=  0 I1Cent=   200000004 NGrid=           0
     NMat0=    1 NMatS0=      1 NMatT0=    0 NMatD0=    1 NMtDS0=    0 NMtDT0=    0
Petite list used in FoFCou.
Keep R1 ints in memory in canonical form, NReq=1030051.
Requested convergence on RMS density matrix=1.00D-08 within 128 cycles.
Requested convergence on MAX density matrix=1.00D-06.
Requested convergence on             energy=1.00D-06.
No special actions if energy rises.
SCF Done:  E(RHF) =  -150.763575896     A.U. after   10 cycles
        NFock= 10  Conv=0.29D-08     -V/T= 2.0023
Calling FoFJK, ICntrl=      2127 FMM=F ISym2X=0 I1Cent= 0 IOpClX= 0 NMat=1 NMatS=1 NMatT=0.
***** Axes restored to original set *****
-------------------------------------------------------------------
Center     Atomic                   Forces (Hartrees/Bohr)
Number     Number              X              Y              Z
-------------------------------------------------------------------
  1        1          -0.002106225   -0.002079201   -0.002656478
  2        8          -0.004892602    0.001938747    0.000924056
  3        8           0.004864730    0.001905235   -0.001121506
  4        1           0.002134098   -0.001764781    0.002853928
-------------------------------------------------------------------
Cartesian Forces:  Max     0.004892602 RMS     0.002719273

GradGradGradGradGradGradGradGradGradGradGradGradGradGradGradGradGradGrad
Berny optimization.
Using GEDIIS/GDIIS optimizer.
FormGI is forming the generalized inverse of G from B-inverse, IUseBI=4.
Internal  Forces:  Max     0.007083103 RMS     0.004329542
Search for a local minimum.
Step number   3 out of a maximum of   20
All quantities printed in internal units (Hartrees-Bohrs-Radians)
Mixed Optimization -- RFO/linear search
Update second derivatives using D2CorX and points    1    2    3
DE= -1.14D-04 DEPred=-2.85D-04 R= 4.00D-01
Trust test= 4.00D-01 RLast= 4.40D-02 DXMaxT set to 4.37D-01
The second derivative matrix:
                      R1        R2        R3        A1        A2
       R1           0.55374
       R2          -0.00212   0.43256
       R3           0.01976  -0.00212   0.55374
       A1          -0.00239   0.08757  -0.00239   0.18149
       A2          -0.00239   0.08754  -0.00239   0.02147   0.18146
       D1          -0.00319   0.00592  -0.00319   0.00339   0.00339
                      D1
       D1           0.00563
ITU=  0  1  0
Use linear search instead of GDIIS.
 Eigenvalues ---    0.14887   0.16000   0.48636   0.53398   0.57378
 Eigenvalues --- 1000.00000
RFO step:  Lambda=-5.37286515D-05 EMin= 1.48870473D-01
Quartic linear search produced a step of -0.36929.
Iteration  1 RMS(Cart)=  0.01482259 RMS(Int)=  0.00006925
Iteration  2 RMS(Cart)=  0.00005529 RMS(Int)=  0.00000000
Iteration  3 RMS(Cart)=  0.00000000 RMS(Int)=  0.00000000
Iteration  1 RMS(Cart)=  0.00000000 RMS(Int)=  0.00000000
Variable       Old X    -DE/DX   Delta X   Delta X   Delta X     New X
                             (Linear)    (Quad)   (Total)
R1        1.79333   0.00099   0.00020   0.00167   0.00187   1.79520
R2        2.62012   0.00708   0.01601  -0.00606   0.00996   2.63008
R3        1.79333   0.00099   0.00020   0.00167   0.00187   1.79520
A1        1.79041   0.00377   0.00190   0.01225   0.01415   1.80455
A2        1.79041   0.00377   0.00189   0.01225   0.01414   1.80455
D1        1.57080   0.00565   0.00000   0.00000   0.00000   1.57080
     Item               Value     Threshold  Converged?
Maximum Force            0.007083     0.000450     NO
RMS     Force            0.004014     0.000300     NO
Maximum Displacement     0.021215     0.001800     NO
RMS     Displacement     0.014828     0.001200     NO
Predicted change in Energy=-9.249767D-05
GradGradGradGradGradGradGradGradGradGradGradGradGradGradGradGradGradGrad

                      Input orientation:
---------------------------------------------------------------------
Center     Atomic      Atomic             Coordinates (Angstroms)
Number     Number       Type             X           Y           Z
---------------------------------------------------------------------
  1          1           0       -0.875074    0.067465   -0.712615
  2          8           0       -0.690539   -0.549698   -0.014392
  3          8           0        0.698598   -0.535059    0.070027
  4          1           0        0.873449    0.152961    0.701308
---------------------------------------------------------------------
                Distance matrix (angstroms):
                1          2          3          4
 1  H    0.000000
 2  O    0.949979   0.000000
 3  O    1.857959   1.391777   0.000000
 4  H    2.250294   1.857959   0.949979   0.000000
Stoichiometry    H2O2
Framework group  C1[X(H2O2)]
Deg. of freedom     6
Full point group                 C1      NOp   1
Largest Abelian subgroup         C1      NOp   1
Largest concise Abelian subgroup C1      NOp   1
                     Standard orientation:
---------------------------------------------------------------------
Center     Atomic      Atomic             Coordinates (Angstroms)
Number     Number       Type             X           Y           Z
---------------------------------------------------------------------
  1          1           0        0.996168    0.580862    0.523071
  2          8           0        0.689446   -0.072608   -0.094472
  3          8           0       -0.689446   -0.072607    0.094473
  4          1           0       -0.996168    0.580858   -0.523074
---------------------------------------------------------------------
Rotational constants (GHZ):    319.5096361     28.0094918     27.9511298
Standard basis: 6-31G(d) (6D, 7F)
There are    34 symmetry adapted cartesian basis functions of A   symmetry.
There are    34 symmetry adapted basis functions of A   symmetry.
34 basis functions,    64 primitive gaussians,    34 cartesian basis functions
 9 alpha electrons        9 beta electrons
   nuclear repulsion energy        38.0387715059 Hartrees.
NAtoms=    4 NActive=    4 NUniq=    4 SFac= 1.00D+00 NAtFMM=   60 NAOKFM=F Big=F
Integral buffers will be    131072 words long.
Raffenetti 1 integral format.
Two-electron integral symmetry is turned on.
One-electron integrals computed using PRISM.
NBasis=    34 RedAO= T EigKep=  9.90D-03  NBF=    34
NBsUse=    34 1.00D-06 EigRej= -1.00D+00 NBFU=    34
Initial guess from the checkpoint file:  "ligand.chk"
B after Tr=     0.000000    0.000000    0.000000
     Rot=    0.999999   -0.000008   -0.001228    0.000000 Ang=  -0.14 deg.
ExpMin= 1.61D-01 ExpMax= 5.48D+03 ExpMxC= 8.25D+02 IAcc=1 IRadAn=         1 AccDes= 0.00D+00
Harris functional with IExCor=  205 and IRadAn=       1 diagonalized for initial guess.
HarFok:  IExCor=  205 AccDes= 0.00D+00 IRadAn=         1 IDoV= 1 UseB2=F ITyADJ=14
ICtDFT=  3500011 ScaDFX=  1.000000  1.000000  1.000000  1.000000
FoFCou: FMM=F IPFlag=           0 FMFlag=      100000 FMFlg1=           0
     NFxFlg=           0 DoJE=T BraDBF=F KetDBF=T FulRan=T
     wScrn=  0.000000 ICntrl=     500 IOpCl=  0 I1Cent=   200000004 NGrid=           0
     NMat0=    1 NMatS0=      1 NMatT0=    0 NMatD0=    1 NMtDS0=    0 NMtDT0=    0
Petite list used in FoFCou.
Keep R1 ints in memory in canonical form, NReq=1030051.
Requested convergence on RMS density matrix=1.00D-08 within 128 cycles.
Requested convergence on MAX density matrix=1.00D-06.
Requested convergence on             energy=1.00D-06.
No special actions if energy rises.
SCF Done:  E(RHF) =  -150.763652377     A.U. after    9 cycles
        NFock=  9  Conv=0.94D-08     -V/T= 2.0025
Calling FoFJK, ICntrl=      2127 FMM=F ISym2X=0 I1Cent= 0 IOpClX= 0 NMat=1 NMatS=1 NMatT=0.
***** Axes restored to original set *****
-------------------------------------------------------------------
Center     Atomic                   Forces (Hartrees/Bohr)
Number     Number              X              Y              Z
-------------------------------------------------------------------
  1        1           0.000726946   -0.002173633   -0.002054909
  2        8          -0.001106737    0.002233317    0.003272032
  3        8           0.001076208    0.001902834   -0.003484171
  4        1          -0.000696418   -0.001962518    0.002267048
-------------------------------------------------------------------
Cartesian Forces:  Max     0.003484171 RMS     0.002097399

GradGradGradGradGradGradGradGradGradGradGradGradGradGradGradGradGradGrad
Berny optimization.
Using GEDIIS/GDIIS optimizer.
FormGI is forming the generalized inverse of G from B-inverse, IUseBI=4.
Internal  Forces:  Max     0.005277671 RMS     0.002241617
Search for a local minimum.
Step number   4 out of a maximum of   20
All quantities printed in internal units (Hartrees-Bohrs-Radians)
Mixed Optimization -- En-DIIS/RFO-DIIS
Update second derivatives using D2CorX and points    1    2    3    4
DE= -7.65D-05 DEPred=-9.25D-05 R= 8.27D-01
TightC=F SS=  1.41D+00  RLast= 2.25D-02 DXNew= 7.3414D-01 6.7498D-02
Trust test= 8.27D-01 RLast= 2.25D-02 DXMaxT set to 4.37D-01
The second derivative matrix:
                      R1        R2        R3        A1        A2
       R1           0.54765
       R2           0.00832   0.43566
       R3           0.01367   0.00832   0.54765
       A1          -0.00360   0.08521  -0.00360   0.22085
       A2          -0.00360   0.08519  -0.00360   0.06084   0.22083
       D1          -0.00467   0.00763  -0.00467   0.01108   0.01108
                      D1
       D1           0.00641
ITU=  1  0  1  0
Use linear search instead of GDIIS.
 Eigenvalues ---    0.16000   0.21527   0.50089   0.53398   0.56251
 Eigenvalues --- 1000.00000
RFO step:  Lambda=-6.73361724D-06 EMin= 1.60000001D-01
Quartic linear search produced a step of -0.13083.
Iteration  1 RMS(Cart)=  0.00322719 RMS(Int)=  0.00000721
Iteration  2 RMS(Cart)=  0.00000608 RMS(Int)=  0.00000000
Iteration  3 RMS(Cart)=  0.00000000 RMS(Int)=  0.00000000
Iteration  1 RMS(Cart)=  0.00000000 RMS(Int)=  0.00000000
Variable       Old X    -DE/DX   Delta X   Delta X   Delta X     New X
                             (Linear)    (Quad)   (Total)
R1        1.79520  -0.00004  -0.00024   0.00007  -0.00017   1.79503
R2        2.63008   0.00030  -0.00130   0.00375   0.00245   2.63253
R3        1.79520  -0.00004  -0.00024   0.00007  -0.00017   1.79503
A1        1.80455  -0.00105  -0.00185  -0.00265  -0.00450   1.80005
A2        1.80455  -0.00105  -0.00185  -0.00266  -0.00451   1.80005
D1        1.57080   0.00528   0.00000   0.00000   0.00000   1.57080
     Item               Value     Threshold  Converged?
Maximum Force            0.001049     0.000450     NO
RMS     Force            0.000678     0.000300     NO
Maximum Displacement     0.004540     0.001800     NO
RMS     Displacement     0.003229     0.001200     NO
Predicted change in Energy=-5.066412D-06
GradGradGradGradGradGradGradGradGradGradGradGradGradGradGradGradGradGrad

                      Input orientation:
---------------------------------------------------------------------
Center     Atomic      Atomic             Coordinates (Angstroms)
Number     Number       Type             X           Y           Z
---------------------------------------------------------------------
  1          1           0       -0.872677    0.067851   -0.711607
  2          8           0       -0.691253   -0.549962   -0.013267
  3          8           0        0.699317   -0.535426    0.068935
  4          1           0        0.871046    0.153205    0.700267
---------------------------------------------------------------------
                Distance matrix (angstroms):
                1          2          3          4
 1  H    0.000000
 2  O    0.949887   0.000000
 3  O    1.855898   1.393074   0.000000
 4  H    2.245272   1.855897   0.949887   0.000000
Stoichiometry    H2O2
Framework group  C1[X(H2O2)]
Deg. of freedom     6
Full point group                 C1      NOp   1
Largest Abelian subgroup         C1      NOp   1
Largest concise Abelian subgroup C1      NOp   1
                     Standard orientation:
---------------------------------------------------------------------
Center     Atomic      Atomic             Coordinates (Angstroms)
Number     Number       Type             X           Y           Z
---------------------------------------------------------------------
  1          1           0        0.992552    0.581419    0.524551
  2          8           0        0.690124   -0.072677   -0.094303
  3          8           0       -0.690124   -0.072678    0.094302
  4          1           0       -0.992552    0.581423   -0.524547
---------------------------------------------------------------------
Rotational constants (GHZ):    318.7406716     27.9823370     27.9251457
Standard basis: 6-31G(d) (6D, 7F)
There are    34 symmetry adapted cartesian basis functions of A   symmetry.
There are    34 symmetry adapted basis functions of A   symmetry.
34 basis functions,    64 primitive gaussians,    34 cartesian basis functions
 9 alpha electrons        9 beta electrons
   nuclear repulsion energy        38.0225649631 Hartrees.
NAtoms=    4 NActive=    4 NUniq=    4 SFac= 1.00D+00 NAtFMM=   60 NAOKFM=F Big=F
Integral buffers will be    131072 words long.
Raffenetti 1 integral format.
Two-electron integral symmetry is turned on.
One-electron integrals computed using PRISM.
NBasis=    34 RedAO= T EigKep=  9.92D-03  NBF=    34
NBsUse=    34 1.00D-06 EigRej= -1.00D+00 NBFU=    34
Initial guess from the checkpoint file:  "ligand.chk"
B after Tr=     0.000000    0.000000    0.000000
     Rot=    1.000000   -0.000003    0.000468    0.000000 Ang=  -0.05 deg.
Keep R1 ints in memory in canonical form, NReq=1030051.
Requested convergence on RMS density matrix=1.00D-08 within 128 cycles.
Requested convergence on MAX density matrix=1.00D-06.
Requested convergence on             energy=1.00D-06.
No special actions if energy rises.
SCF Done:  E(RHF) =  -150.763657202     A.U. after    9 cycles
        NFock=  9  Conv=0.23D-08     -V/T= 2.0025
Calling FoFJK, ICntrl=      2127 FMM=F ISym2X=0 I1Cent= 0 IOpClX= 0 NMat=1 NMatS=1 NMatT=0.
***** Axes restored to original set *****
-------------------------------------------------------------------
Center     Atomic                   Forces (Hartrees/Bohr)
Number     Number              X              Y              Z
-------------------------------------------------------------------
  1        1           0.000117812   -0.002256078   -0.002085561
  2        8          -0.000066422    0.002290139    0.002743556
  3        8           0.000034453    0.001998337   -0.002963494
  4        1          -0.000085842   -0.002032397    0.002305500
-------------------------------------------------------------------
Cartesian Forces:  Max     0.002963494 RMS     0.001924832

GradGradGradGradGradGradGradGradGradGradGradGradGradGradGradGradGradGrad
Berny optimization.
Using GEDIIS/GDIIS optimizer.
FormGI is forming the generalized inverse of G from B-inverse, IUseBI=4.
Internal  Forces:  Max     0.005373999 RMS     0.002194475
Search for a local minimum.
Step number   5 out of a maximum of   20
All quantities printed in internal units (Hartrees-Bohrs-Radians)
Mixed Optimization -- En-DIIS/RFO-DIIS
Swapping is turned off.
Update second derivatives using D2CorX and points    1    2    3    4    5
DE= -4.82D-06 DEPred=-5.07D-06 R= 9.52D-01
TightC=F SS=  1.41D+00  RLast= 6.83D-03 DXNew= 7.3414D-01 2.0495D-02
Trust test= 9.52D-01 RLast= 6.83D-03 DXMaxT set to 4.37D-01
The second derivative matrix:
                      R1        R2        R3        A1        A2
       R1           0.54592
       R2           0.00178   0.45176
       R3           0.01194   0.00178   0.54591
       A1          -0.00066   0.07898  -0.00066   0.22177
       A2          -0.00065   0.07894  -0.00065   0.06178   0.22180
       D1          -0.00389   0.00483  -0.00389   0.01215   0.01215
                      D1
       D1           0.00657
ITU=  1  1  0  1  0
 Eigenvalues ---    0.16000   0.22786   0.50740   0.53398   0.55793
 Eigenvalues --- 1000.00000
En-DIIS/RFO-DIIS IScMMF=        0 using points:     5    4
RFO step:  Lambda=-9.38405774D-07.
DidBck=F Rises=F RFO-DIIS coefs:    0.94831    0.05169
Iteration  1 RMS(Cart)=  0.00014016 RMS(Int)=  0.00000002
Iteration  2 RMS(Cart)=  0.00000001 RMS(Int)=  0.00000000
Iteration  1 RMS(Cart)=  0.00000000 RMS(Int)=  0.00000000
Variable       Old X    -DE/DX   Delta X   Delta X   Delta X     New X
                             (Linear)    (Quad)   (Total)
R1        1.79503   0.00004   0.00001   0.00007   0.00008   1.79511
R2        2.63253  -0.00009  -0.00013  -0.00014  -0.00027   2.63226
R3        1.79503   0.00004   0.00001   0.00007   0.00008   1.79511
A1        1.80005   0.00004   0.00023  -0.00003   0.00020   1.80025
A2        1.80005   0.00004   0.00023  -0.00003   0.00020   1.80025
D1        1.57080   0.00537   0.00000   0.00000   0.00000   1.57080
     Item               Value     Threshold  Converged?
Maximum Force            0.000090     0.000450     YES
RMS     Force            0.000054     0.000300     YES
Maximum Displacement     0.000171     0.001800     YES
RMS     Displacement     0.000140     0.001200     YES
Predicted change in Energy=-2.280627D-08
Optimization completed.
-- Stationary point found.
                       ----------------------------
                       !   Optimized Parameters   !
                       ! (Angstroms and Degrees)  !
--------------------------                            --------------------------
! Name  Definition              Value          Derivative Info.                !
--------------------------------------------------------------------------------
! R1    R(1,2)                  0.9499         -DE/DX =    0.0                 !
! R2    R(2,3)                  1.3931         -DE/DX =   -0.0001              !
! R3    R(3,4)                  0.9499         -DE/DX =    0.0                 !
! A1    A(1,2,3)              103.1351         -DE/DX =    0.0                 !
! A2    A(2,3,4)              103.135          -DE/DX =    0.0                 !
! D1    D(1,2,3,4)             90.0            -DE/DX =    0.0054              !
--------------------------------------------------------------------------------
GradGradGradGradGradGradGradGradGradGradGradGradGradGradGradGradGradGrad

                      Input orientation:
---------------------------------------------------------------------
Center     Atomic      Atomic             Coordinates (Angstroms)
Number     Number       Type             X           Y           Z
---------------------------------------------------------------------
  1          1           0       -0.872677    0.067851   -0.711607
  2          8           0       -0.691253   -0.549962   -0.013267
  3          8           0        0.699317   -0.535426    0.068935
  4          1           0        0.871046    0.153205    0.700267
---------------------------------------------------------------------
                Distance matrix (angstroms):
                1          2          3          4
 1  H    0.000000
 2  O    0.949887   0.000000
 3  O    1.855898   1.393074   0.000000
 4  H    2.245272   1.855897   0.949887   0.000000
Stoichiometry    H2O2
Framework group  C1[X(H2O2)]
Deg. of freedom     6
Full point group                 C1      NOp   1
Largest Abelian subgroup         C1      NOp   1
Largest concise Abelian subgroup C1      NOp   1
                     Standard orientation:
---------------------------------------------------------------------
Center     Atomic      Atomic             Coordinates (Angstroms)
Number     Number       Type             X           Y           Z
---------------------------------------------------------------------
  1          1           0        0.992552    0.581419    0.524551
  2          8           0        0.690124   -0.072677   -0.094303
  3          8           0       -0.690124   -0.072678    0.094302
  4          1           0       -0.992552    0.581423   -0.524547
---------------------------------------------------------------------
Rotational constants (GHZ):    318.7406716     27.9823370     27.9251457

**********************************************************************

        Population analysis using the SCF density.

**********************************************************************

Orbital symmetries:
   Occupied  (A) (A) (A) (A) (A) (A) (A) (A) (A)
   Virtual   (A) (A) (A) (A) (A) (A) (A) (A) (A) (A) (A) (A)
             (A) (A) (A) (A) (A) (A) (A) (A) (A) (A) (A) (A)
             (A)
The electronic state is 1-A.
Alpha  occ. eigenvalues --  -20.62996 -20.62961  -1.50079  -1.20585  -0.74692
Alpha  occ. eigenvalues --   -0.69873  -0.61530  -0.49233  -0.48723
Alpha virt. eigenvalues --    0.21578   0.23097   0.35209   1.05494   1.05693
Alpha virt. eigenvalues --    1.07836   1.08413   1.18233   1.21932   1.26527
Alpha virt. eigenvalues --    1.34270   1.43120   1.56712   1.78116   1.81798
Alpha virt. eigenvalues --    1.89550   2.15184   2.41813   2.71494   2.71590
Alpha virt. eigenvalues --    2.75292   2.89665   3.26884   3.84625   4.08023
      Condensed to atoms (all electrons):
           1          2          3          4
 1  H    0.314995   0.256151  -0.026691  -0.000540
 2  O    0.256151   8.149656   0.076968  -0.026691
 3  O   -0.026691   0.076968   8.149656   0.256151
 4  H   -0.000540  -0.026691   0.256151   0.314995
Mulliken charges:
           1
 1  H    0.456085
 2  O   -0.456085
 3  O   -0.456085
 4  H    0.456085
Sum of Mulliken charges =   0.00000
Mulliken charges with hydrogens summed into heavy atoms:
           1
 2  O    0.000000
 3  O    0.000000
Electronic spatial extent (au):  <R**2>=             63.1424
Charge=              0.0000 electrons
Dipole moment (field-independent basis, Debye):
X=              0.0000    Y=              2.5673    Z=              0.0000  Tot=              2.5673
Quadrupole moment (field-independent basis, Debye-Ang):
XX=            -10.2573   YY=            -10.6398   ZZ=            -10.9858
XY=              0.0000   XZ=              2.6690   YZ=              0.0000
Traceless Quadrupole moment (field-independent basis, Debye-Ang):
XX=              0.3703   YY=             -0.0122   ZZ=             -0.3582
XY=              0.0000   XZ=              2.6690   YZ=              0.0000
Octapole moment (field-independent basis, Debye-Ang**2):
XXX=              0.0000  YYY=              2.0219  ZZZ=              0.0000  XYY=              0.0000
XXY=              3.2314  XXZ=              0.0000  XZZ=              0.0000  YZZ=              0.9944
YYZ=              0.0000  XYZ=              1.5282
Hexadecapole moment (field-independent basis, Debye-Ang**3):
XXXX=            -39.2158 YYYY=             -9.5058 ZZZZ=             -9.7587 XXXY=              0.0000
XXXZ=              3.4028 YYYX=              0.0000 YYYZ=              0.0000 ZZZX=              2.0010
ZZZY=              0.0000 XXYY=             -8.0953 XXZZ=             -8.3351 YYZZ=             -2.8715
XXYZ=              0.0000 YYXZ=              1.1816 ZZXY=              0.0000
N-N= 3.802256496310D+01 E-N=-4.339468563135D+02  KE= 1.503878064461D+02
1\1\GINC-D-SNES-L-DC-01\FOpt\RHF\6-31G(d)\H2O2\B6056633\03-Sep-2020\0\
\#HF/6-31G(d) Opt=ModRedundant\\hooh\\0,1\H,-0.8726773493,0.0678506964
,-0.7116068187\O,-0.6912527474,-0.5499617544,-0.0132670475\O,0.6993174
53,-0.5354264129,0.0689345983\H,0.8710461718,0.1532054862,0.7002672323
\\Version=ES64L-G09RevD.01\State=1-A\HF=-150.7636572\RMSD=2.275e-09\RM
SF=1.925e-03\Dipole=-0.0074858,1.0086881,-0.0517354\Quadrupole=-0.5005
808,-0.0062371,0.5068179,0.0956281,1.9356022,0.0408225\PG=C01 [X(H2O2)
]\\@


WHEN A MATHEMATICIAN ENGAGED IN INVESTIGATING
PHYSICAL ACTIONS AND RESULTS HAS ARRIVED AT HIS
CONCLUSIONS, MAY THEY NOT BE EXPRESSED IN COMMON
LANGUAGE AS FULLY, CLEARLY, AND DEFINITELY AS IN
MATHEMATICAL FORMULAE?
       - LETTER FROM M. FARADAY TO J.C. MAXWELL, 1857.
Job cpu time:       0 days  0 hours  0 minutes  8.4 seconds.
File lengths (MBytes):  RWF=      5 Int=      0 D2E=      0 Chk=      1 Scr=      1
Normal termination of Gaussian 09 at Thu Sep  3 17:26:23 2020.