hooh
FOpt      RHF                                                         6-31G(d)
Number of atoms                            I                4
Info1-9                                    I   N=           9
          19          16           0           0           0         110
           2           1           2
Charge                                     I                0
Multiplicity                               I                1
Number of electrons                        I               18
Number of alpha electrons                  I                9
Number of beta electrons                   I                9
Number of basis functions                  I               34
Number of independent functions            I               34
Number of point charges in /Mol/           I                0
Number of translation vectors              I                0
Atomic numbers                             I   N=           4
           1           8           8           1
Nuclear charges                            R   N=           4
  1.00000000E+00  8.00000000E+00  8.00000000E+00  1.00000000E+00
Current cartesian coordinates              R   N=          12
  1.87565221E+00  1.09872301E+00  9.91258098E-01  1.30414442E+00 -1.37340269E-01
 -1.78206149E-01 -1.30414462E+00 -1.37341407E-01  1.78205245E-01 -1.87565061E+00
  1.09873039E+00 -9.91250868E-01
Force Field                                I                0
Int Atom Types                             I   N=           4
           0           0           0           0
MM charges                                 R   N=           4
  0.00000000E+00  0.00000000E+00  0.00000000E+00  0.00000000E+00
Integer atomic weights                     I   N=           4
           1          16          16           1
Real atomic weights                        R   N=           4
  1.00782504E+00  1.59949146E+01  1.59949146E+01  1.00782504E+00
Atom fragment info                         I   N=           4
           0           0           0           0
Atom residue num                           I   N=           4
           0           0           0           0
Nuclear spins                              I   N=           4
           1           0           0           1
Nuclear ZEff                               R   N=           4
 -1.00000000E+00 -5.60000000E+00 -5.60000000E+00 -1.00000000E+00
Nuclear ZNuc                               R   N=           4
  1.00000000E+00  8.00000000E+00  8.00000000E+00  1.00000000E+00
Nuclear QMom                               R   N=           4
  0.00000000E+00  0.00000000E+00  0.00000000E+00  0.00000000E+00
Nuclear GFac                               R   N=           4
  2.79284600E+00  0.00000000E+00  0.00000000E+00  2.79284600E+00
MicOpt                                     I   N=           4
          -1          -1          -1          -1
Number of contracted shells                I               12
Number of primitive shells                 I               30
Pure/Cartesian d shells                    I                1
Pure/Cartesian f shells                    I                0
Highest angular momentum                   I                2
Largest degree of contraction              I                6
Shell types                                I   N=          12
           0           0           0          -1          -1           2
           0          -1          -1           2           0           0
Number of primitives per shell             I   N=          12
           3           1           6           3           1           1
           6           3           1           1           3           1
Shell to atom map                          I   N=          12
           1           1           2           2           2           2
           3           3           3           3           4           4
Primitive exponents                        R   N=          30
  1.87311370E+01  2.82539436E+00  6.40121692E-01  1.61277759E-01  5.48467166E+03
  8.25234946E+02  1.88046958E+02  5.29645000E+01  1.68975704E+01  5.79963534E+00
  1.55396162E+01  3.59993359E+00  1.01376175E+00  2.70005823E-01  8.00000000E-01
  5.48467166E+03  8.25234946E+02  1.88046958E+02  5.29645000E+01  1.68975704E+01
  5.79963534E+00  1.55396162E+01  3.59993359E+00  1.01376175E+00  2.70005823E-01
  8.00000000E-01  1.87311370E+01  2.82539436E+00  6.40121692E-01  1.61277759E-01
Contraction coefficients                   R   N=          30
  3.34946043E-02  2.34726953E-01  8.13757326E-01  1.00000000E+00  1.83107443E-03
  1.39501722E-02  6.84450781E-02  2.32714336E-01  4.70192898E-01  3.58520853E-01
 -1.10777550E-01 -1.48026263E-01  1.13076702E+00  1.00000000E+00  1.00000000E+00
  1.83107443E-03  1.39501722E-02  6.84450781E-02  2.32714336E-01  4.70192898E-01
  3.58520853E-01 -1.10777550E-01 -1.48026263E-01  1.13076702E+00  1.00000000E+00
  1.00000000E+00  3.34946043E-02  2.34726953E-01  8.13757326E-01  1.00000000E+00
P(S=P) Contraction coefficients            R   N=          30
  0.00000000E+00  0.00000000E+00  0.00000000E+00  0.00000000E+00  0.00000000E+00
  0.00000000E+00  0.00000000E+00  0.00000000E+00  0.00000000E+00  0.00000000E+00
  7.08742682E-02  3.39752839E-01  7.27158577E-01  1.00000000E+00  0.00000000E+00
  0.00000000E+00  0.00000000E+00  0.00000000E+00  0.00000000E+00  0.00000000E+00
  0.00000000E+00  7.08742682E-02  3.39752839E-01  7.27158577E-01  1.00000000E+00
  0.00000000E+00  0.00000000E+00  0.00000000E+00  0.00000000E+00  0.00000000E+00
Coordinates of each shell                  R   N=          36
  1.87565221E+00  1.09872301E+00  9.91258098E-01  1.87565221E+00  1.09872301E+00
  9.91258098E-01  1.30414442E+00 -1.37340269E-01 -1.78206149E-01  1.30414442E+00
 -1.37340269E-01 -1.78206149E-01  1.30414442E+00 -1.37340269E-01 -1.78206149E-01
  1.30414442E+00 -1.37340269E-01 -1.78206149E-01 -1.30414462E+00 -1.37341407E-01
  1.78205245E-01 -1.30414462E+00 -1.37341407E-01  1.78205245E-01 -1.30414462E+00
 -1.37341407E-01  1.78205245E-01 -1.30414462E+00 -1.37341407E-01  1.78205245E-01
 -1.87565061E+00  1.09873039E+00 -9.91250868E-01 -1.87565061E+00  1.09873039E+00
 -9.91250868E-01
Constraint Structure                       R   N=          12
  1.80575005E+00  1.13848010E+00  1.05957702E+00  1.36508048E+00 -1.42307686E-01
 -1.75203829E-01 -1.36507714E+00 -1.42317048E-01  1.75198653E-01 -1.80577676E+00
  1.13851777E+00 -1.05953561E+00
Num ILSW                                   I              100
ILSW                                       I   N=         100
           0           1           0           0           2           0
           0           0           0           0           0          -1
           0           0           0           0           2           0
           0           0           1           0           1           0
           1           0           0           0           0           0
           0           0      100000           0          -1           0
           0           0           0           0           0           0
           0           0           0           1           0           0
           0           0           1           0           0           0
           0           0           4          41           0           0
           0           0           0           0           0           0
           0           0           0           0           0           0
           0           0           0           0           0           0
           0           0           0           0           0           0
           0           0           0           0           0           0
           0           0           0           0           0           0
           0           0           0           0
Num RLSW                                   I               41
RLSW                                       R   N=          41
  1.00000000E+00  1.00000000E+00  1.00000000E+00  1.00000000E+00  1.00000000E+00
  0.00000000E+00  0.00000000E+00  1.00000000E+00  0.00000000E+00  0.00000000E+00
  0.00000000E+00  0.00000000E+00  1.00000000E+00  0.00000000E+00  0.00000000E+00
  0.00000000E+00  0.00000000E+00  1.00000000E+00  0.00000000E+00  0.00000000E+00
  0.00000000E+00  0.00000000E+00  1.00000000E+00  0.00000000E+00  0.00000000E+00
  0.00000000E+00  0.00000000E+00  1.00000000E+00  0.00000000E+00  0.00000000E+00
  0.00000000E+00  0.00000000E+00  1.00000000E+00  0.00000000E+00  0.00000000E+00
  0.00000000E+00  0.00000000E+00  0.00000000E+00  1.00000000E+00  1.00000000E+00
  0.00000000E+00
MxBond                                     I                2
NBond                                      I   N=           4
           1           2           2           1
IBond                                      I   N=           8
           2           0           1           3           2           4
           3           0
RBond                                      R   N=           8
  1.00000000E+00  0.00000000E+00  1.00000000E+00  1.00000000E+00  1.00000000E+00
  1.00000000E+00  1.00000000E+00  0.00000000E+00
Virial Ratio                               R      2.002499210309432E+00
SCF Energy                                 R     -1.507636572023849E+02
RMS Force                                  R      1.924832250096576E-03
RMS Density                                R      2.274645118111180E-09
External E-field                           R   N=          35
  0.00000000E+00  0.00000000E+00  0.00000000E+00  0.00000000E+00  0.00000000E+00
  0.00000000E+00  0.00000000E+00  0.00000000E+00  0.00000000E+00  0.00000000E+00
  0.00000000E+00  0.00000000E+00  0.00000000E+00  0.00000000E+00  0.00000000E+00
  0.00000000E+00  0.00000000E+00  0.00000000E+00  0.00000000E+00  0.00000000E+00
  0.00000000E+00  0.00000000E+00  0.00000000E+00  0.00000000E+00  0.00000000E+00
  0.00000000E+00  0.00000000E+00  0.00000000E+00  0.00000000E+00  0.00000000E+00
  0.00000000E+00  0.00000000E+00  0.00000000E+00  0.00000000E+00  0.00000000E+00
IOpCl                                      I                0
IROHF                                      I                0
Alpha Orbital Energies                     R   N=          34
 -2.06299561E+01 -2.06296052E+01 -1.50078669E+00 -1.20584739E+00 -7.46916657E-01
 -6.98733704E-01 -6.15297987E-01 -4.92328222E-01 -4.87225236E-01  2.15783585E-01
  2.30968929E-01  3.52087016E-01  1.05493860E+00  1.05692553E+00  1.07836114E+00
  1.08413304E+00  1.18232622E+00  1.21932325E+00  1.26526903E+00  1.34270383E+00
  1.43120486E+00  1.56712134E+00  1.78115505E+00  1.81797925E+00  1.89550187E+00
  2.15184384E+00  2.41813191E+00  2.71494399E+00  2.71589502E+00  2.75292259E+00
  2.89665423E+00  3.26884191E+00  3.84625277E+00  4.08023362E+00
Alpha MO coefficients                      R   N=        1156
  1.87323446E-04 -1.59744411E-04  7.03270312E-01  1.50133348E-02 -8.64904523E-04
  5.88829359E-04  6.63245510E-04  2.58038394E-03  2.89959172E-04 -1.55096582E-04
 -2.71212445E-04 -2.95145119E-03 -2.67331049E-03 -2.67304542E-03 -3.16738134E-05
  2.36362152E-05 -7.03848054E-05  7.03436825E-01  1.50168347E-02  8.64996146E-04
  5.88977776E-04 -6.63378592E-04  2.58092620E-03 -2.90068153E-04 -1.55181783E-04
  2.71275761E-04 -2.95215967E-03 -2.67394329E-03 -2.67367557E-03  3.16794585E-05
  2.36396207E-05  7.04103837E-05  1.87399715E-04 -1.59765648E-04  3.22039815E-04
 -9.01729668E-05  7.03490427E-01  1.47878303E-02 -3.84988498E-04  6.08285995E-04
  5.80663773E-04  2.29476641E-03  4.59155646E-04 -3.52026987E-04 -2.72125411E-04
 -2.99430310E-03 -2.67074645E-03 -2.66685720E-03 -2.44311743E-05  1.37058786E-05
 -1.07925745E-04 -7.03323927E-01 -1.47842758E-02 -3.84784279E-04 -6.08150551E-04
  5.80502341E-04 -2.29415489E-03  4.59087273E-04  3.51992197E-04 -2.72058689E-04
  2.99360421E-03  2.67011460E-03  2.66622278E-03 -2.44235663E-05 -1.37003885E-05
 -1.07909099E-04 -3.21995487E-04  9.01348830E-05  8.16851861E-02 -8.87406287E-03
 -1.48834646E-01  3.41488578E-01 -7.86683914E-02  3.67078383E-02  3.95329062E-02
  2.67743092E-01 -2.84580248E-02  2.17893773E-02  1.86018220E-02  2.65256174E-02
  5.87087875E-03  5.21966489E-03 -3.08239548E-04 -2.08207681E-03  8.50462953E-03
 -1.48834666E-01  3.41488637E-01  7.86684099E-02  3.67081200E-02 -3.95326789E-02
  2.67743121E-01  2.84580197E-02  2.17895114E-02 -1.86016855E-02  2.65256054E-02
  5.87098963E-03  5.21957223E-03  3.08261099E-04 -2.08208198E-03 -8.50463567E-03
  8.16852277E-02 -8.87407704E-03  1.29755559E-01  6.22372831E-04 -1.49784988E-01
  3.51041069E-01  9.66621494E-02  5.63673162E-02  5.39826199E-02  3.56302048E-01
  4.37609404E-02  3.39333989E-02  2.80039849E-02 -9.77463791E-03  1.56576661E-02
  1.41794364E-02  8.03673711E-03  8.29907568E-03  1.29545762E-02  1.49784961E-01
 -3.51041018E-01  9.66620698E-02 -5.63677014E-02  5.39822356E-02 -3.56301987E-01
  4.37609040E-02 -3.39335965E-02  2.80037547E-02  9.77465563E-03 -1.56578261E-02
 -1.41792866E-02  8.03677601E-03 -8.29899949E-03  1.29545691E-02 -1.29755511E-01
 -6.22364046E-04  1.78757708E-01  7.56838371E-02  1.52394227E-02 -3.72803999E-02
  2.26577163E-01  3.12296164E-01  8.78688632E-02 -4.77495202E-02  1.23203440E-01
  1.82391303E-01  4.96667645E-02 -2.68692999E-02  2.32537537E-02  7.90100786E-03
 -3.61470518E-05  1.49252154E-02  2.08020067E-02  1.52394111E-02 -3.72803663E-02
 -2.26577074E-01  3.12296883E-01 -8.78668903E-02 -4.77494939E-02 -1.23203399E-01
  1.82391701E-01 -4.96656074E-02 -2.68693304E-02  2.32540167E-02  7.90077803E-03
  3.60652243E-05  1.49251953E-02 -2.08019042E-02  1.78757759E-01  7.56838729E-02
  1.36081401E-01  6.85468866E-02  4.94616951E-02 -1.14495204E-01  1.14443282E-02
  8.10653947E-02  3.88475612E-01 -1.91813831E-01 -2.78344637E-03  3.93700248E-02
  2.40876547E-01 -5.18507420E-03  2.27624959E-03  1.86368416E-02  3.86114278E-03
 -1.24250149E-02  2.04337684E-02 -4.94617645E-02  1.14495374E-01  1.14436908E-02
 -8.10682225E-02  3.88475143E-01  1.91814115E-01 -2.78382197E-03 -3.93717833E-02
  2.40876312E-01  5.18503844E-03 -2.27648639E-03 -1.86365879E-02  3.86101862E-03
  1.24250838E-02  2.04339025E-02 -1.36081370E-01 -6.85468594E-02  1.11765247E-02
  1.43989827E-02 -3.64235326E-02  8.78488920E-02  3.61205761E-01 -2.47982947E-01
  7.42002866E-03  1.62792227E-01  2.37641022E-01 -1.75371481E-01  9.23741031E-03
 -2.47388921E-02 -1.61501994E-03  1.22836763E-02  2.23350355E-02  1.72530843E-02
 -5.53792628E-03 -3.64235299E-02  8.78488779E-02 -3.61205840E-01 -2.47982979E-01
 -7.42244515E-03  1.62792247E-01 -2.37641028E-01 -1.75371475E-01 -9.23910201E-03
 -2.47389296E-02 -1.61509435E-03  1.22837761E-02 -2.23351558E-02  1.72529018E-02
  5.53779375E-03  1.11765388E-02  1.43990340E-02  1.07230712E-01  6.92538561E-02
  2.78634170E-02 -6.78672203E-02 -4.22911532E-02  4.44213239E-01 -1.44788588E-01
 -1.20289941E-01 -4.13096699E-02  3.33291411E-01 -1.18981644E-01 -1.15311837E-03
  2.14781652E-02 -1.17538138E-02  7.52190046E-03  7.00080141E-03  1.12699760E-02
 -2.78634151E-02  6.78672122E-02 -4.22909986E-02 -4.44211967E-01 -1.44791361E-01
  1.20289931E-01 -4.13095394E-02 -3.33290358E-01 -1.18983714E-01  1.15313283E-03
 -2.14782958E-02  1.17539257E-02  7.52195141E-03 -7.00076614E-03  1.12697193E-02
 -1.07230793E-01 -6.92538853E-02  9.66474483E-02  4.52633359E-02  2.70419591E-02
 -5.59316359E-02 -7.56860573E-02 -1.24898817E-01  4.50644146E-01 -1.45967904E-01
 -4.94716905E-02 -1.00882473E-01  3.41500854E-01  9.30338588E-03 -8.04621729E-03
  1.90549781E-02  5.51160371E-03  4.25969503E-03  1.33732763E-02  2.70419141E-02
 -5.59315300E-02  7.56861282E-02 -1.24896044E-01 -4.50644996E-01 -1.45967678E-01
  4.94717090E-02 -1.00880354E-01 -3.41501540E-01  9.30337711E-03 -8.04606763E-03
  1.90548242E-02 -5.51162832E-03  4.25964193E-03 -1.33734826E-02  9.66473504E-02
  4.52632108E-02  4.76577657E-02  1.12462027E+00  5.83513113E-02 -4.57594011E-02
 -8.11884115E-02 -1.24327377E-01 -1.07267206E-01 -8.02912518E-01 -1.55264973E-01
 -2.89312660E-01 -2.80289709E-01  3.10534012E-02  2.94955665E-02  3.02425794E-02
 -1.22585090E-03 -2.79596081E-03 -1.36362530E-02  5.83511204E-02 -4.57591339E-02
  8.11888754E-02 -1.24327909E-01  1.07266140E-01 -8.02910396E-01  1.55265432E-01
 -2.89314089E-01  2.80287273E-01  3.10533052E-02  2.94953640E-02  3.02426994E-02
  1.22587644E-03 -2.79594716E-03  1.36362286E-02  4.76577005E-02  1.12461830E+00
 -6.02408054E-02 -1.06799282E+00 -7.52704276E-02  9.00693419E-02 -1.61422116E-01
  1.17531770E-01  1.36290044E-01  9.41022119E-01 -2.34863851E-01  2.78829629E-01
  3.07299175E-01 -4.18421444E-02 -1.87014751E-02 -1.87670165E-02 -5.91216710E-03
 -5.27030374E-03  1.04371764E-02  7.52705516E-02 -9.00694438E-02 -1.61422103E-01
 -1.17533000E-01  1.36289345E-01 -9.41023853E-01 -2.34863900E-01 -2.78832478E-01
  3.07297698E-01  4.18421977E-02  1.87014169E-02  1.87672146E-02 -5.91221381E-03
  5.27027353E-03  1.04372078E-02  6.02408241E-02  1.06799531E+00 -4.88745602E-02
 -6.69672929E-01  4.05960878E-02 -1.39435131E-01  4.38523605E-01  8.16045629E-02
  3.12285088E-02 -2.08510032E-01  8.61900763E-01  1.84354536E-01  6.09453509E-02
 -8.03678179E-03 -2.04518111E-02 -2.31618015E-02  1.65060390E-02  5.78133654E-03
 -2.24302226E-03 -4.05960998E-02  1.39435113E-01  4.38523552E-01 -8.16048726E-02
  3.12280302E-02  2.08510405E-01  8.61900536E-01 -1.84355036E-01  6.09440999E-02
  8.03677472E-03  2.04518209E-02  2.31617552E-02  1.65060640E-02 -5.78121529E-03
 -2.24305453E-03  4.88747588E-02  6.69672198E-01  6.80952468E-01 -5.19022649E-01
 -2.35220710E-03 -4.19351761E-01  6.57627474E-02  1.40032394E-01 -2.54061040E-01
  6.51829421E-01 -2.25846449E-01 -2.79388190E-01  9.80359366E-03 -2.42836354E-01
 -8.75387358E-02 -8.57330553E-02  5.13061696E-02  2.29555774E-02  7.38292218E-02
 -2.35244543E-03 -4.19351795E-01 -6.57545937E-02  1.40035277E-01  2.54057690E-01
  6.51822071E-01  2.25826157E-01 -2.79388962E-01 -9.80278356E-03 -2.42840134E-01
 -8.75379997E-02 -8.57339649E-02 -5.13059693E-02  2.29546261E-02 -7.38276968E-02
  6.80943444E-01 -5.19019489E-01 -4.84531291E-01  1.83271253E-01 -1.43181554E-02
  4.34821177E-03 -4.49556514E-01  2.25078147E-01  2.48619532E-01 -3.78268566E-01
  1.05445124E+00 -9.14139771E-03 -1.56378220E-01 -1.98865854E-01 -8.47845869E-03
 -3.10467165E-03 -1.63809345E-02 -2.13057375E-02 -8.76556607E-02  1.43180653E-02
 -4.35631405E-03 -4.49558542E-01 -2.25077286E-01  2.48622293E-01  3.78281429E-01
  1.05445599E+00  9.13731717E-03 -1.56377953E-01  1.98860963E-01  8.47787722E-03
  3.10199914E-03 -1.63818605E-02  2.13060401E-02 -8.76570150E-02  4.84543756E-01
 -1.83281212E-01 -5.08092613E-01  4.29137223E-01 -6.98985104E-03  4.17850756E-01
  1.71809412E-01  2.23807041E-01 -3.69914114E-01 -6.19411412E-01 -2.24211221E-01
 -5.96978277E-02  4.47241782E-01  1.97417547E-01  1.09347109E-01  1.19287404E-01
 -1.61546373E-02 -4.41321060E-02 -7.88897361E-02  6.98937183E-03 -4.17860626E-01
  1.71810497E-01 -2.23798213E-01 -3.69920129E-01  6.19430912E-01 -2.24214141E-01
  5.96911874E-02  4.47244930E-01 -1.97421394E-01 -1.09349699E-01 -1.19291825E-01
 -1.61538121E-02  4.41318690E-02 -7.88890992E-02  5.08088102E-01 -4.29138427E-01
 -2.98522455E-01 -4.50270929E-02 -2.72712052E-02 -5.78511694E-01 -1.17038242E-01
  4.35440958E-01  2.63685201E-01  1.14720313E+00  2.27915724E-01 -2.58939114E-01
 -1.39473981E-01 -2.06710621E-01 -2.16998624E-01 -2.10396711E-01 -6.23170375E-02
 -7.55827523E-03 -3.92736076E-02 -2.72713220E-02 -5.78505014E-01  1.17035850E-01
  4.35446255E-01 -2.63676406E-01  1.14719321E+00 -2.27912227E-01 -2.58940963E-01
  1.39465106E-01 -2.06707501E-01 -2.16997374E-01 -2.10394361E-01  6.23173309E-02
 -7.55842592E-03  3.92748797E-02 -2.98530445E-01 -4.50202766E-02  7.70767003E-02
 -2.15556652E-01 -2.02369069E-02 -3.12602496E-01  3.07189887E-01 -3.16459178E-01
  4.27837644E-01  5.56389022E-01 -3.69195426E-01  3.18635138E-01 -6.20719176E-01
 -2.37756236E-01 -5.10707471E-02 -6.66531865E-02 -4.95295548E-03 -4.20925880E-03
  1.14153389E-03 -2.02368691E-02 -3.12601768E-01 -3.07189471E-01 -3.16454240E-01
 -4.27839159E-01  5.56386599E-01  3.69193770E-01  3.18628203E-01  6.20720813E-01
 -2.37756136E-01 -5.10705533E-02 -6.66529538E-02  4.95310909E-03 -4.20926575E-03
 -1.14129457E-03  7.70764371E-02 -2.15556572E-01 -3.95123634E-01  4.46486314E-01
 -4.64549149E-03  3.04174403E-01  1.88122032E-01 -3.98811354E-01  3.40485282E-01
 -4.82212438E-01 -2.66661960E-01  7.41942850E-01 -2.68601072E-01  1.25667131E-01
  8.46791915E-02  7.68850666E-02  1.24871492E-02 -6.40660168E-02 -7.98927757E-02
  4.64554603E-03 -3.04173107E-01  1.88122639E-01  3.98809731E-01  3.40488796E-01
  4.82210177E-01 -2.66662883E-01 -7.41941767E-01 -2.68607412E-01 -1.25666341E-01
 -8.46779831E-02 -7.68857430E-02  1.24869221E-02  6.40660362E-02 -7.98927903E-02
  3.95123093E-01 -4.46485247E-01  3.41159425E-01 -4.85664803E-01  9.95295922E-03
 -2.73108015E-01 -5.13883259E-01 -2.91751562E-01  1.06799928E-01  6.72863307E-01
  5.66243990E-01  2.72552532E-01 -2.59288490E-01  7.10713195E-02 -1.16724533E-01
 -1.27537389E-01  8.36616661E-02 -2.73841609E-02  5.48166480E-02  9.95293764E-03
 -2.73109009E-01  5.13882997E-01 -2.91751393E-01 -1.06801371E-01  6.72865855E-01
 -5.66243156E-01  2.72551344E-01  2.59289776E-01  7.10710340E-02 -1.16724112E-01
 -1.27538295E-01 -8.36614786E-02 -2.73848331E-02 -5.48167579E-02  3.41159974E-01
 -4.85665689E-01  5.17329272E-02 -8.00573128E-01  3.40290865E-04 -1.29003833E-01
 -3.45698359E-01 -4.51048663E-01 -4.13518353E-01  9.68614976E-02  9.09017628E-01
  7.99487449E-01  4.91608580E-01 -1.09327988E-01 -7.94056847E-03 -2.02917348E-02
  2.74353458E-02  2.26160413E-02 -2.57739160E-02 -3.40243748E-04  1.29004266E-01
 -3.45697549E-01  4.51051813E-01 -4.13515197E-01 -9.68622052E-02  9.09016462E-01
 -7.99491342E-01  4.91603028E-01  1.09328502E-01  7.94089598E-03  2.02914262E-02
  2.74354130E-02 -2.26158661E-02 -2.57740124E-02 -5.17328338E-02  8.00573272E-01
 -3.04078381E-01 -7.14001357E-01 -4.41655202E-02 -7.42008733E-01  1.26509962E-02
 -3.20977348E-01 -3.63867763E-01  1.68526663E+00  1.82326018E-01  5.78207840E-01
  8.74902687E-01 -2.94646617E-01 -1.91491757E-01 -1.87552556E-01 -1.48293777E-01
  3.85633057E-02 -6.68667790E-02 -4.41654793E-02 -7.42007671E-01 -1.26510074E-02
 -3.20979408E-01  3.63865521E-01  1.68526415E+00 -1.82325871E-01  5.78213131E-01
 -8.74898787E-01 -2.94646139E-01 -1.91492326E-01 -1.87551538E-01  1.48293532E-01
  3.85646836E-02  6.68669163E-02 -3.04078409E-01 -7.14000910E-01  2.35620880E-01
  1.89087378E-01  8.28359442E-02  1.11470972E+00 -2.08120446E-01  2.46522270E-02
  7.94506271E-02 -3.56574574E+00  1.50180538E+00 -2.33696479E-01 -3.66118569E-01
  3.54215874E-01  3.13113072E-01  2.86519265E-01  4.01078799E-02  1.67966752E-01
  1.91333765E-01 -8.28360035E-02 -1.11471042E+00 -2.08120936E-01 -2.46529342E-02
  7.94505254E-02  3.56574713E+00  1.50180594E+00  2.33699521E-01 -3.66117556E-01
 -3.54216243E-01 -3.13115545E-01 -2.86517086E-01  4.01090942E-02 -1.67966357E-01
  1.91333869E-01 -2.35621676E-01 -1.89087664E-01  1.12920245E-01  3.68177984E-02
  1.77403163E-02  1.92233203E-01 -2.65826230E-02  3.31708121E-03 -3.07926725E-02
 -6.63245569E-01  2.54347291E-01 -8.27598552E-02 -1.67625933E-01 -7.98318802E-02
  7.80469871E-02  1.63613237E-01  1.33909161E-02 -5.57783841E-01  2.59058684E-01
 -1.77404035E-02 -1.92234623E-01 -2.65829597E-02 -3.31682282E-03 -3.07924158E-02
  6.63248652E-01  2.54347412E-01  8.27627240E-02 -1.67626777E-01  7.98313376E-02
 -7.80497894E-02 -1.63610974E-01  1.33820855E-02  5.57784201E-01  2.59060902E-01
 -1.12921581E-01 -3.68189157E-02 -2.26318722E-01 -1.58124639E-01 -1.35126736E-02
 -2.09219874E-01  4.85200914E-02 -5.68280120E-04 -5.21401965E-02  4.67130136E-01
  1.43126121E-02  2.37814287E-01  2.43272613E-01 -6.09534529E-02  2.51726709E-02
 -1.27378475E-01  5.62003229E-01  2.26751114E-02 -2.62965786E-01 -1.35125330E-02
 -2.09218388E-01 -4.85198465E-02 -5.68540289E-04  5.21405310E-02  4.67125100E-01
 -1.43143206E-02  2.37815100E-01 -2.43269783E-01 -6.09542038E-02  2.51701618E-02
 -1.27373956E-01 -5.62003659E-01  2.26668454E-02  2.62964265E-01 -2.26317594E-01
 -1.58124580E-01  2.01035421E-02  1.99800322E-02  1.18560537E-03  2.30361591E-02
 -4.11504190E-03 -1.97623075E-03  4.19128212E-03 -4.99934522E-02  1.28450616E-03
 -4.06592175E-02  1.46905747E-03 -6.20734363E-03  5.93920336E-01 -5.71804386E-01
 -7.08183063E-02 -9.87283562E-02  3.30321437E-02  1.18560352E-03  2.30361444E-02
  4.11503613E-03 -1.97621552E-03 -4.19130133E-03 -4.99934081E-02 -1.28451014E-03
 -4.06591559E-02 -1.46934231E-03 -6.20733375E-03  5.93920834E-01 -5.71804907E-01
  7.08191166E-02 -9.87278816E-02 -3.30226254E-02  2.01035071E-02  1.99800575E-02
  3.14887281E-03 -4.74630274E-04  1.58354519E-04  5.98821212E-04  2.68513436E-04
 -5.09508132E-04  5.47355835E-03 -3.18935011E-03  1.90537792E-03 -2.65214837E-02
  9.93917235E-03 -5.58969918E-03  6.31928133E-01 -6.25487528E-01  1.93879276E-03
 -7.39805875E-02 -5.85001200E-03 -1.58354753E-04 -5.98816910E-04  2.68510609E-04
  5.09465711E-04  5.47356897E-03  3.18934049E-03  1.90537957E-03  2.65214025E-02
  9.93932619E-03  5.58968597E-03 -6.31927963E-01  6.25487369E-01  1.93826489E-03
  7.39805165E-02 -5.86018163E-03 -3.14887211E-03  4.74638960E-04 -1.16717567E-01
 -7.41872011E-02  3.02714980E-03 -4.18443653E-01  4.03287029E-01 -6.28470648E-03
 -6.52954386E-02  4.38228941E-01 -2.68678296E-01  7.76381172E-02  1.31415015E-01
  4.65598620E-01 -3.56540785E-01 -3.47927003E-01  8.69229563E-02 -9.64878526E-02
  2.98498162E-01  3.02715661E-03 -4.18443547E-01 -4.03287010E-01 -6.28508795E-03
  6.52954138E-02  4.38228670E-01  2.68678323E-01  7.76388041E-02 -1.31414444E-01
  4.65598578E-01 -3.56537130E-01 -3.47930562E-01 -8.69224658E-02 -9.64886323E-02
 -2.98498100E-01 -1.16717315E-01 -7.41872957E-02 -1.82345826E-02  6.31533807E-02
  8.68535756E-04  3.79484509E-02 -2.51626331E-03  5.62357272E-03  7.60810849E-02
 -7.91899192E-02 -5.96743610E-02 -2.17978874E-02 -3.81504953E-01  1.88032654E-01
  1.99219634E-02 -1.90889028E-01 -2.00291431E-02  8.52617244E-01  2.52414066E-03
  8.67090481E-04  3.79342399E-02  2.51491461E-03  5.62770309E-03 -7.60809620E-02
 -7.91394707E-02  5.96910914E-02 -2.18096747E-02  3.81493759E-01  1.88028938E-01
  1.99197905E-02 -1.90892012E-01  1.99652474E-02  8.52622177E-01 -2.53175118E-03
 -1.82602475E-02  6.31557312E-02 -7.64835216E-02  6.92785836E-02 -4.41758490E-03
 -2.30950978E-02  7.08729579E-03  7.39455619E-02  6.22797630E-03  1.08192470E-01
 -8.01766167E-02 -3.54246235E-01  8.41697791E-03 -2.60544399E-02 -4.87744260E-03
 -1.64901383E-04  8.77200246E-01 -2.88685049E-03 -8.62313271E-02  4.41774437E-03
  2.30976537E-02  7.08682701E-03 -7.39451798E-02  6.22250415E-03 -1.08199316E-01
 -8.01717224E-02  3.54243625E-01  8.44555122E-03  2.60680135E-02  4.87898430E-03
  1.51046943E-04  8.77202460E-01  2.94733301E-03 -8.62287448E-02  7.64851170E-02
 -6.92743119E-02 -1.04409812E+00 -8.98287409E-02 -5.75411792E-02 -6.29070406E-01
  4.48425881E-02 -5.46917692E-02 -2.17966797E-02  2.15595571E+00 -5.85348298E-01
  6.74888405E-01  5.20458944E-01 -9.44441033E-02 -9.11267453E-02 -1.47404609E-01
  8.18284273E-02  2.42924161E-01  7.18917594E-01  5.75410941E-02  6.29071518E-01
  4.48433250E-02  5.46921131E-02 -2.17976902E-02 -2.15595618E+00 -5.85348729E-01
 -6.74891880E-01  5.20461062E-01  9.44473781E-02  9.11185945E-02  1.47409461E-01
  8.18292060E-02 -2.42905474E-01  7.18915942E-01  1.04409606E+00  8.98298883E-02
  9.22669522E-01  4.27728095E-02  3.63537333E-02  7.06340671E-02  1.33998013E-01
  1.36735436E-02  2.91986427E-02 -6.04497253E-01 -2.88993110E-01 -3.67389850E-01
 -5.31858489E-01  3.69072542E-01 -1.31233668E-01 -1.20676963E-01 -2.92090604E-01
 -9.34126440E-02 -7.25248575E-01  3.63538755E-02  7.06355088E-02 -1.33997918E-01
  1.36740031E-02 -2.91986888E-02 -6.04502712E-01  2.88990700E-01 -3.67396254E-01
  5.31857262E-01  3.69073057E-01 -1.31242343E-01 -1.20668022E-01  2.92087757E-01
 -9.34104571E-02  7.25250694E-01  9.22671614E-01  4.27730260E-02  5.43236158E-02
 -5.46997378E-03 -9.38988726E-02 -5.86763987E-01 -1.95142962E-01  9.97864129E-03
  3.39184325E-02  2.87238594E+00 -1.86369500E+00 -3.37237814E-02  2.36094666E-01
  1.09718459E+00 -7.21589856E-01 -6.86446006E-01  7.74377469E-03 -2.92263531E-01
 -1.00852031E-02  9.38988613E-02  5.86764106E-01 -1.95142989E-01 -9.97884697E-03
  3.39183451E-02 -2.87238614E+00 -1.86369488E+00  3.37221629E-02  2.36095023E-01
 -1.09718461E+00  7.21589898E-01  6.86445828E-01  7.74199707E-03  2.92263479E-01
 -1.00848279E-02 -5.43234514E-02  5.47013586E-03  1.39974991E-01 -5.02772351E-01
 -3.24259446E-01  2.55632894E-01 -5.18232826E-03 -6.87324444E-02 -5.03570007E-02
  2.17724344E+00 -3.49892931E-03  1.65037049E-01  1.45549311E-01 -8.86827763E-01
 -1.12886616E+00 -1.12059726E+00  8.94198994E-03 -5.15437898E-02 -1.81552978E-02
 -3.24259556E-01  2.55632674E-01  5.18225154E-03 -6.87328149E-02  5.03565884E-02
  2.17724525E+00  3.49959788E-03  1.65038285E-01 -1.45548570E-01 -8.86827938E-01
 -1.12886676E+00 -1.12059744E+00 -8.94178271E-03 -5.15437926E-02  1.81550316E-02
  1.39974632E-01 -5.02772624E-01 -1.08210234E-02 -3.99416725E-01 -3.47043225E-01
  7.94779860E-02  1.31527852E-01 -4.05361782E-02 -7.20775969E-02  3.39104736E+00
 -5.02315842E-01  1.80764558E-01  2.45078212E-01 -1.23279015E+00 -1.15923943E+00
 -1.16721138E+00 -1.15548550E-03  3.93270322E-02  6.45335037E-02  3.47043143E-01
 -7.94779309E-02  1.31527962E-01  4.05366600E-02 -7.20772726E-02 -3.39104668E+00
 -5.02316152E-01 -1.80766199E-01  2.45076826E-01  1.23278996E+00  1.15923836E+00
  1.16721186E+00 -1.15528587E-03 -3.93269994E-02  6.45334525E-02  1.08210553E-02
  3.99416442E-01
Total SCF Density                          R   N=         595
  1.89891298E-01  6.83490007E-02  3.51161714E-02 -3.31709733E-02  1.64495726E-02
  2.07917643E+00  7.90111626E-02 -3.89044848E-02 -1.90558047E-01  5.40478154E-01
  8.07262962E-02  3.50750197E-02 -3.20231164E-02  7.22541898E-02  4.09975779E-01
  2.19920334E-01  1.00882356E-01  2.74734076E-02 -6.70609771E-02 -4.93180928E-02
  7.66093214E-01  2.13832810E-01  8.68779963E-02  3.06814905E-02 -6.00254162E-02